 Entering Gaussian System, Link 0=g09
 Initial command:
 /apps/gaussian/g09_C01.binary_dist/em64t/g09/l1.exe /tmp/tomasi/Gau-10750.inp -scrdir=/tmp/tomasi/
 Entering Link 1 = /apps/gaussian/g09_C01.binary_dist/em64t/g09/l1.exe PID=     10751.
  
 Copyright (c) 1988,1990,1992,1993,1995,1998,2003,2009,2011,
            Gaussian, Inc.  All Rights Reserved.
  
 This is part of the Gaussian(R) 09 program.  It is based on
 the Gaussian(R) 03 system (copyright 2003, Gaussian, Inc.),
 the Gaussian(R) 98 system (copyright 1998, Gaussian, Inc.),
 the Gaussian(R) 94 system (copyright 1995, Gaussian, Inc.),
 the Gaussian 92(TM) system (copyright 1992, Gaussian, Inc.),
 the Gaussian 90(TM) system (copyright 1990, Gaussian, Inc.),
 the Gaussian 88(TM) system (copyright 1988, Gaussian, Inc.),
 the Gaussian 86(TM) system (copyright 1986, Carnegie Mellon
 University), and the Gaussian 82(TM) system (copyright 1983,
 Carnegie Mellon University). Gaussian is a federally registered
 trademark of Gaussian, Inc.
  
 This software contains proprietary and confidential information,
 including trade secrets, belonging to Gaussian, Inc.
  
 This software is provided under written license and may be
 used, copied, transmitted, or stored only in accord with that
 written license.
  
 The following legend is applicable only to US Government
 contracts under FAR:
  
                    RESTRICTED RIGHTS LEGEND
  
 Use, reproduction and disclosure by the US Government is
 subject to restrictions as set forth in subparagraphs (a)
 and (c) of the Commercial Computer Software - Restricted
 Rights clause in FAR 52.227-19.
  
 Gaussian, Inc.
 340 Quinnipiac St., Bldg. 40, Wallingford CT 06492
  
  
 ---------------------------------------------------------------
 Warning -- This program may not be used in any manner that
 competes with the business of Gaussian, Inc. or will provide
 assistance to any competitor of Gaussian, Inc.  The licensee
 of this program is prohibited from giving any competitor of
 Gaussian, Inc. access to this program.  By using this program,
 the user acknowledges that Gaussian, Inc. is engaged in the
 business of creating and licensing software in the field of
 computational chemistry and represents and warrants to the
 licensee that it is not a competitor of Gaussian, Inc. and that
 it will not use this program in any manner prohibited above.
 ---------------------------------------------------------------
  

 Cite this work as:
 Gaussian 09, Revision C.01,
 M. J. Frisch, G. W. Trucks, H. B. Schlegel, G. E. Scuseria, 
 M. A. Robb, J. R. Cheeseman, G. Scalmani, V. Barone, B. Mennucci, 
 G. A. Petersson, H. Nakatsuji, M. Caricato, X. Li, H. P. Hratchian, 
 A. F. Izmaylov, J. Bloino, G. Zheng, J. L. Sonnenberg, M. Hada, 
 M. Ehara, K. Toyota, R. Fukuda, J. Hasegawa, M. Ishida, T. Nakajima, 
 Y. Honda, O. Kitao, H. Nakai, T. Vreven, J. A. Montgomery, Jr., 
 J. E. Peralta, F. Ogliaro, M. Bearpark, J. J. Heyd, E. Brothers, 
 K. N. Kudin, V. N. Staroverov, T. Keith, R. Kobayashi, J. Normand, 
 K. Raghavachari, A. Rendell, J. C. Burant, S. S. Iyengar, J. Tomasi, 
 M. Cossi, N. Rega, J. M. Millam, M. Klene, J. E. Knox, J. B. Cross, 
 V. Bakken, C. Adamo, J. Jaramillo, R. Gomperts, R. E. Stratmann, 
 O. Yazyev, A. J. Austin, R. Cammi, C. Pomelli, J. W. Ochterski, 
 R. L. Martin, K. Morokuma, V. G. Zakrzewski, G. A. Voth, 
 P. Salvador, J. J. Dannenberg, S. Dapprich, A. D. Daniels, 
 O. Farkas, J. B. Foresman, J. V. Ortiz, J. Cioslowski, 
 and D. J. Fox, Gaussian, Inc., Wallingford CT, 2010.
 
 ******************************************
 Gaussian 09:  EM64L-G09RevC.01 23-Sep-2011
                 6-Aug-2014 
 ******************************************
 %nprocshared=4
 Will use up to    4 processors via shared memory.
 %chk=N-Me-2-piridazone.chk
 -----------------------------------------------------
 #p opt b3lyp/6-31g(d,p) nosymm pop=(npa,mk,hirshfeld)
 -----------------------------------------------------
 1/14=-1,18=20,19=15,26=3,38=1/1,3;
 2/9=110,12=2,15=1,17=6,18=5,40=1/2;
 3/5=1,6=6,7=101,11=2,16=1,25=1,30=1,71=1,74=-5/1,2,3;
 4//1;
 5/5=2,38=5/2;
 6/7=2,8=2,9=2,10=2,15=8,20=1,28=1,40=-1,79=1/1,2,7;
 7/30=1/1,2,3,16;
 1/14=-1,18=20,19=15/3(2);
 2/9=110,15=1/2;
 99//99;
 2/9=110,15=1/2;
 3/5=1,6=6,7=101,11=2,16=1,25=1,30=1,71=1,74=-5/1,2,3;
 4/5=5,16=3/1;
 5/5=2,38=5/2;
 7/30=1/1,2,3,16;
 1/14=-1,18=20,19=15/3(-5);
 2/9=110,15=1/2;
 6/7=2,8=2,9=2,10=2,15=8,19=2,20=1,28=1,40=-1,79=1/1,2,7;
 99/9=1/99;
 Leave Link    1 at Wed Aug  6 09:13:51 2014, MaxMem=          0 cpu:       0.2
 (Enter /apps/gaussian/g09_C01.binary_dist/em64t/g09/l101.exe)
 -------------------
 Title Card Required
 -------------------
 Charge =  0 Multiplicity = 1
 Symbolic Z-Matrix:
 C                    -3.14689   1.79873   0.00065 
 C                    -0.34037   1.76703   0.00012 
 O                     0.87683   1.84696  -0.00029 
 C                    -2.45699   2.97909   0.00078 
 H                    -2.9419    3.95061   0.00109 
 N                    -1.10292   2.98324   0.00052 
 C                    -0.33015   4.22452   0.00063 
 H                     0.31337   4.25801   0.88223 
 H                     0.31294   4.25844  -0.88127 
 H                    -1.01501   5.07399   0.001 
 H                    -4.22831   1.77544   0.00087 
 N                    -2.36257   0.61519   0.00021 
 C                    -1.05393   0.58038  -0.00007 
 H                    -0.53963  -0.35792  -0.00045 
 
 NAtoms=     14 NQM=        0 NQMF=       0 NMMI=     14 NMMIF=      0
                NMic=       0 NMicF=      0.
                    Isotopes and Nuclear Properties:
 (Nuclear quadrupole moments (NQMom) in fm**2, nuclear magnetic moments (NMagM)
  in nuclear magnetons)

  Atom         1           2           3           4           5           6           7           8           9          10
 IAtWgt=          12          12          16          12           1          14          12           1           1           1
 AtmWgt=  12.0000000  12.0000000  15.9949146  12.0000000   1.0078250  14.0030740  12.0000000   1.0078250   1.0078250   1.0078250
 NucSpn=           0           0           0           0           1           2           0           1           1           1
 AtZEff=   0.0000000   0.0000000   0.0000000   0.0000000   0.0000000   0.0000000   0.0000000   0.0000000   0.0000000   0.0000000
 NQMom=    0.0000000   0.0000000   0.0000000   0.0000000   0.0000000   2.0440000   0.0000000   0.0000000   0.0000000   0.0000000
 NMagM=    0.0000000   0.0000000   0.0000000   0.0000000   2.7928460   0.4037610   0.0000000   2.7928460   2.7928460   2.7928460

  Atom        11          12          13          14
 IAtWgt=           1          14          12           1
 AtmWgt=   1.0078250  14.0030740  12.0000000   1.0078250
 NucSpn=           1           2           0           1
 AtZEff=   0.0000000   0.0000000   0.0000000   0.0000000
 NQMom=    0.0000000   2.0440000   0.0000000   0.0000000
 NMagM=    2.7928460   0.4037610   0.0000000   2.7928460
 Leave Link  101 at Wed Aug  6 09:13:51 2014, MaxMem=   33554432 cpu:       0.3
 (Enter /apps/gaussian/g09_C01.binary_dist/em64t/g09/l103.exe)

 GradGradGradGradGradGradGradGradGradGradGradGradGradGradGradGradGradGrad
 Berny optimization.
 Initialization pass.
                           ----------------------------
                           !    Initial Parameters    !
                           ! (Angstroms and Degrees)  !
 --------------------------                            --------------------------
 ! Name  Definition              Value          Derivative Info.                !
 --------------------------------------------------------------------------------
 ! R1    R(1,4)                  1.3672         estimate D2E/DX2                !
 ! R2    R(1,11)                 1.0817         estimate D2E/DX2                !
 ! R3    R(1,12)                 1.4198         estimate D2E/DX2                !
 ! R4    R(2,3)                  1.2198         estimate D2E/DX2                !
 ! R5    R(2,6)                  1.4355         estimate D2E/DX2                !
 ! R6    R(2,13)                 1.3847         estimate D2E/DX2                !
 ! R7    R(4,5)                  1.0858         estimate D2E/DX2                !
 ! R8    R(4,6)                  1.3541         estimate D2E/DX2                !
 ! R9    R(6,7)                  1.4622         estimate D2E/DX2                !
 ! R10   R(7,8)                  1.092          estimate D2E/DX2                !
 ! R11   R(7,9)                  1.092          estimate D2E/DX2                !
 ! R12   R(7,10)                 1.0912         estimate D2E/DX2                !
 ! R13   R(12,13)                1.3091         estimate D2E/DX2                !
 ! R14   R(13,14)                1.07           estimate D2E/DX2                !
 ! A1    A(4,1,11)             121.5394         estimate D2E/DX2                !
 ! A2    A(4,1,12)             116.1628         estimate D2E/DX2                !
 ! A3    A(11,1,12)            122.2978         estimate D2E/DX2                !
 ! A4    A(3,2,6)              118.3302         estimate D2E/DX2                !
 ! A5    A(3,2,13)             124.7767         estimate D2E/DX2                !
 ! A6    A(6,2,13)             116.8931         estimate D2E/DX2                !
 ! A7    A(1,4,5)              123.1694         estimate D2E/DX2                !
 ! A8    A(1,4,6)              120.4811         estimate D2E/DX2                !
 ! A9    A(5,4,6)              116.3495         estimate D2E/DX2                !
 ! A10   A(2,6,4)              121.9116         estimate D2E/DX2                !
 ! A11   A(2,6,7)              116.0081         estimate D2E/DX2                !
 ! A12   A(4,6,7)              122.0803         estimate D2E/DX2                !
 ! A13   A(6,7,8)              109.7276         estimate D2E/DX2                !
 ! A14   A(6,7,9)              109.7282         estimate D2E/DX2                !
 ! A15   A(6,7,10)             109.2191         estimate D2E/DX2                !
 ! A16   A(8,7,9)              107.6972         estimate D2E/DX2                !
 ! A17   A(8,7,10)             110.226          estimate D2E/DX2                !
 ! A18   A(9,7,10)             110.2258         estimate D2E/DX2                !
 ! A19   A(1,12,13)            125.0554         estimate D2E/DX2                !
 ! A20   A(2,13,12)            119.496          estimate D2E/DX2                !
 ! A21   A(2,13,14)            120.252          estimate D2E/DX2                !
 ! A22   A(12,13,14)           120.252          estimate D2E/DX2                !
 ! D1    D(11,1,4,5)            -0.0005         estimate D2E/DX2                !
 ! D2    D(11,1,4,6)           179.999          estimate D2E/DX2                !
 ! D3    D(12,1,4,5)           179.9989         estimate D2E/DX2                !
 ! D4    D(12,1,4,6)            -0.0016         estimate D2E/DX2                !
 ! D5    D(4,1,12,13)            0.0004         estimate D2E/DX2                !
 ! D6    D(11,1,12,13)         179.9998         estimate D2E/DX2                !
 ! D7    D(3,2,6,4)            179.9898         estimate D2E/DX2                !
 ! D8    D(3,2,6,7)             -0.0097         estimate D2E/DX2                !
 ! D9    D(13,2,6,4)             0.0035         estimate D2E/DX2                !
 ! D10   D(13,2,6,7)          -179.996          estimate D2E/DX2                !
 ! D11   D(3,2,13,12)         -179.9899         estimate D2E/DX2                !
 ! D12   D(3,2,13,14)            0.0101         estimate D2E/DX2                !
 ! D13   D(6,2,13,12)           -0.0047         estimate D2E/DX2                !
 ! D14   D(6,2,13,14)          179.9953         estimate D2E/DX2                !
 ! D15   D(1,4,6,2)             -0.0003         estimate D2E/DX2                !
 ! D16   D(1,4,6,7)            179.9991         estimate D2E/DX2                !
 ! D17   D(5,4,6,2)            179.9992         estimate D2E/DX2                !
 ! D18   D(5,4,6,7)             -0.0014         estimate D2E/DX2                !
 ! D19   D(2,6,7,8)            -59.0682         estimate D2E/DX2                !
 ! D20   D(2,6,7,9)             59.0747         estimate D2E/DX2                !
 ! D21   D(2,6,7,10)          -179.9967         estimate D2E/DX2                !
 ! D22   D(4,6,7,8)            120.9323         estimate D2E/DX2                !
 ! D23   D(4,6,7,9)           -120.9247         estimate D2E/DX2                !
 ! D24   D(4,6,7,10)             0.0038         estimate D2E/DX2                !
 ! D25   D(1,12,13,2)            0.0029         estimate D2E/DX2                !
 ! D26   D(1,12,13,14)        -179.9971         estimate D2E/DX2                !
 --------------------------------------------------------------------------------
 Trust Radius=3.00D-01 FncErr=1.00D-07 GrdErr=1.00D-06
 Number of steps in this run=     72 maximum allowed number of steps=    100.
 GradGradGradGradGradGradGradGradGradGradGradGradGradGradGradGradGradGrad

 Leave Link  103 at Wed Aug  6 09:13:51 2014, MaxMem=   33554432 cpu:       0.0
 (Enter /apps/gaussian/g09_C01.binary_dist/em64t/g09/l202.exe)
                          Input orientation:                          
 ---------------------------------------------------------------------
 Center     Atomic      Atomic             Coordinates (Angstroms)
 Number     Number       Type             X           Y           Z
 ---------------------------------------------------------------------
      1          6           0       -3.146888    1.798734    0.000653
      2          6           0       -0.340368    1.767027    0.000120
      3          8           0        0.876827    1.846956   -0.000286
      4          6           0       -2.456991    2.979091    0.000779
      5          1           0       -2.941904    3.950609    0.001091
      6          7           0       -1.102920    2.983242    0.000523
      7          6           0       -0.330154    4.224517    0.000628
      8          1           0        0.313372    4.258008    0.882227
      9          1           0        0.312943    4.258437   -0.881269
     10          1           0       -1.015014    5.073993    0.000999
     11          1           0       -4.228313    1.775441    0.000870
     12          7           0       -2.362571    0.615185    0.000210
     13          6           0       -1.053934    0.580376   -0.000072
     14          1           0       -0.539631   -0.357916   -0.000448
 ---------------------------------------------------------------------
                    Distance matrix (angstroms):
                    1          2          3          4          5
     1  C    0.000000
     2  C    2.806699   0.000000
     3  O    4.024004   1.219817   0.000000
     4  C    1.367187   2.439097   3.520806   0.000000
     5  H    2.161616   3.396472   4.359824   1.085812   0.000000
     6  N    2.362385   1.435502   2.282662   1.354077   2.077898
     7  C    3.717313   2.457511   2.666383   2.464654   2.626074
     8  H    4.335735   2.722219   2.628589   3.176081   3.386402
     9  H    4.335707   2.722276   2.628562   3.176046   3.386347
    10  H    3.907967   3.375081   3.740699   2.543209   2.230448
    11  H    1.081676   3.887954   5.105641   2.141578   2.527094
    12  N    1.419839   2.327240   3.465683   2.365791   3.385363
    13  C    2.421746   1.384672   2.309126   2.778921   3.863017
    14  H    3.383627   2.134266   2.620651   3.848622   4.932982
                    6          7          8          9         10
     6  N    0.000000
     7  C    1.462167   0.000000
     8  H    2.099598   1.092000   0.000000
     9  H    2.099606   1.092001   1.763496   0.000000
    10  H    2.092598   1.091166   1.790811   1.790809   0.000000
    11  H    3.350651   4.603653   5.250413   5.250376   4.604969
    12  N    2.682241   4.142221   4.605300   4.605287   4.657991
    13  C    2.403365   3.715323   4.021561   4.021566   4.493786
    14  H    3.388308   4.587219   4.776346   4.776342   5.452672
                   11         12         13         14
    11  H    0.000000
    12  N    2.197086   0.000000
    13  C    3.391882   1.309100   0.000000
    14  H    4.261172   2.066407   1.070000   0.000000
 Symmetry turned off by external request.
 Stoichiometry    C5H6N2O
 Framework group  C1[X(C5H6N2O)]
 Deg. of freedom    36
 Full point group                 C1      NOp   1
 Rotational constants (GHZ):      3.4760093      2.4066719      1.4347284
 Leave Link  202 at Wed Aug  6 09:13:51 2014, MaxMem=   33554432 cpu:       0.0
 (Enter /apps/gaussian/g09_C01.binary_dist/em64t/g09/l301.exe)
 Standard basis: 6-31G(d,p) (6D, 7F)
 Ernie: Thresh=  0.10000D-02 Tol=  0.10000D-05 Strict=F.
 Integral buffers will be    131072 words long.
 Raffenetti 2 integral format.
 Two-electron integral symmetry is turned off.
   150 basis functions,   266 primitive gaussians,   150 cartesian basis functions
    29 alpha electrons       29 beta electrons
       nuclear repulsion energy       358.9956148660 Hartrees.
 IExCor=  402 DFT=T Ex+Corr=B3LYP ExCW=0 ScaHFX=  0.200000
 ScaDFX=  0.800000  0.720000  1.000000  0.810000 ScalE2=  1.000000  1.000000
 IRadAn=      0 IRanWt=     -1 IRanGd=            0 ICorTp=0
 NAtoms=   14 NActive=   14 NUniq=   14 SFac= 1.00D+00 NAtFMM=   60 NAOKFM=F Big=F
 Leave Link  301 at Wed Aug  6 09:13:51 2014, MaxMem=   33554432 cpu:       0.2
 (Enter /apps/gaussian/g09_C01.binary_dist/em64t/g09/l302.exe)
 NPDir=0 NMtPBC=     1 NCelOv=     1 NCel=       1 NClECP=     1 NCelD=      1
         NCelK=      1 NCelE2=     1 NClLst=     1 CellRange=     0.0.
 One-electron integrals computed using PRISM.
 NBasis=   150 RedAO= T  NBF=   150
 NBsUse=   150 1.00D-06 NBFU=   150
 Precomputing XC quadrature grid using
 IXCGrd= 2 IRadAn=           0 IRanWt=          -1 IRanGd=           0 AccXCQ= 0.00D+00.
 NRdTot=     870 NPtTot=      110602 NUsed=      116887 NTot=      116919
 NSgBfM=   150   150   150   150   150 NAtAll=    14    14.
 Leave Link  302 at Wed Aug  6 09:13:51 2014, MaxMem=   33554432 cpu:       0.9
 (Enter /apps/gaussian/g09_C01.binary_dist/em64t/g09/l303.exe)
 DipDrv:  MaxL=1.
 Leave Link  303 at Wed Aug  6 09:13:52 2014, MaxMem=   33554432 cpu:       0.1
 (Enter /apps/gaussian/g09_C01.binary_dist/em64t/g09/l401.exe)
 Harris functional with IExCor=  402 diagonalized for initial guess.
 ExpMin= 1.61D-01 ExpMax= 5.48D+03 ExpMxC= 8.25D+02 IAcc=1 IRadAn=         1 AccDes= 0.00D+00
 HarFok:  IExCor=  402 AccDes= 0.00D+00 IRadAn=         1 IDoV= 1
 ScaDFX=  1.000000  1.000000  1.000000  1.000000
 FoFCou: FMM=F IPFlag=           0 FMFlag=      100000 FMFlg1=           0
         NFxFlg=           0 DoJE=T BraDBF=F KetDBF=T FulRan=T
         Omega=  0.000000  0.000000  1.000000  0.000000  0.000000 ICntrl=     500 IOpCl=  0
         NMat0=    1 NMatS0=    1 NMatT0=    0 NMatD0=    1 NMtDS0=    0 NMtDT0=    0
         I1Cent=           4 NGrid=           0.
 Symmetry not used in FoFCou.
 Harris En= -378.834911924756    
 Leave Link  401 at Wed Aug  6 09:13:52 2014, MaxMem=   33554432 cpu:       1.4
 (Enter /apps/gaussian/g09_C01.binary_dist/em64t/g09/l502.exe)
 Closed shell SCF:
 Requested convergence on RMS density matrix=1.00D-08 within 128 cycles.
 Requested convergence on MAX density matrix=1.00D-06.
 Requested convergence on             energy=1.00D-06.
 No special actions if energy rises.
 Using DIIS extrapolation, IDIIS=  1040.
 Two-electron integral symmetry not used.
       116748 words used for storage of precomputed grid.
 IEnd=      204222 IEndB=      204222 NGot=    33554432 MDV=    33389501
 LenX=    33389501 LenY=    33366560
 Fock matrices will be formed incrementally for  20 cycles.
 Integral accuracy reduced to 1.0D-05 until final iterations.

 Cycle   1  Pass 0  IDiag  1:
 FoFCou: FMM=F IPFlag=           0 FMFlag=      100000 FMFlg1=           0
         NFxFlg=           0 DoJE=F BraDBF=F KetDBF=F FulRan=T
         Omega=  0.000000  0.000000  1.000000  0.000000  0.000000 ICntrl=       0 IOpCl=  0
         NMat0=    1 NMatS0=    1 NMatT0=    0 NMatD0=    1 NMtDS0=    0 NMtDT0=    0
         I1Cent=           0 NGrid=           0.
 Symmetry not used in FoFCou.
 E= -378.690117627362    
 DIIS: error= 2.81D-02 at cycle   1 NSaved=   1.
 NSaved= 1 IEnMin= 1 EnMin= -378.690117627362     IErMin= 1 ErrMin= 2.81D-02
 ErrMax= 2.81D-02 EMaxC= 1.00D-01 BMatC= 1.82D-01 BMatP= 1.82D-01
 IDIUse=3 WtCom= 7.19D-01 WtEn= 2.81D-01
 Coeff-Com:  0.100D+01
 Coeff-En:   0.100D+01
 Coeff:      0.100D+01
 Gap=     0.156 Goal=   None    Shift=    0.000
 GapD=    0.156 DampG=1.000 DampE=0.500 DampFc=0.5000 IDamp=-1.
 Damping current iteration by 5.00D-01
 RMSDP=8.93D-03 MaxDP=2.98D-01              OVMax= 4.31D-01

 Cycle   2  Pass 0  IDiag  1:
 RMSU=  3.15D-03    CP:  9.90D-01
 E= -378.702130842427     Delta-E=       -0.012013215065 Rises=F Damp=T
 DIIS: error= 1.95D-02 at cycle   2 NSaved=   2.
 NSaved= 2 IEnMin= 2 EnMin= -378.702130842427     IErMin= 2 ErrMin= 1.95D-02
 ErrMax= 1.95D-02 EMaxC= 1.00D-01 BMatC= 6.01D-02 BMatP= 1.82D-01
 IDIUse=3 WtCom= 8.05D-01 WtEn= 1.95D-01
 Coeff-Com:  0.318D+00 0.682D+00
 Coeff-En:   0.468D+00 0.532D+00
 Coeff:      0.347D+00 0.653D+00
 Gap=     0.218 Goal=   None    Shift=    0.000
 RMSDP=3.06D-03 MaxDP=1.25D-01 DE=-1.20D-02 OVMax= 3.15D-01

 Cycle   3  Pass 0  IDiag  1:
 RMSU=  1.67D-03    CP:  9.77D-01  5.72D-01
 E= -378.827340658357     Delta-E=       -0.125209815930 Rises=F Damp=F
 DIIS: error= 1.64D-02 at cycle   3 NSaved=   3.
 NSaved= 3 IEnMin= 3 EnMin= -378.827340658357     IErMin= 3 ErrMin= 1.64D-02
 ErrMax= 1.64D-02 EMaxC= 1.00D-01 BMatC= 2.93D-02 BMatP= 6.01D-02
 IDIUse=3 WtCom= 8.36D-01 WtEn= 1.64D-01
 Coeff-Com:  0.910D-01 0.396D+00 0.513D+00
 Coeff-En:   0.000D+00 0.000D+00 0.100D+01
 Coeff:      0.761D-01 0.331D+00 0.593D+00
 Gap=     0.165 Goal=   None    Shift=    0.000
 RMSDP=1.77D-03 MaxDP=4.43D-02 DE=-1.25D-01 OVMax= 1.11D-01

 Cycle   4  Pass 0  IDiag  1:
 RMSU=  6.81D-04    CP:  9.86D-01  7.32D-01  4.58D-01
 E= -378.848935105830     Delta-E=       -0.021594447473 Rises=F Damp=F
 DIIS: error= 6.61D-03 at cycle   4 NSaved=   4.
 NSaved= 4 IEnMin= 4 EnMin= -378.848935105830     IErMin= 4 ErrMin= 6.61D-03
 ErrMax= 6.61D-03 EMaxC= 1.00D-01 BMatC= 7.52D-03 BMatP= 2.93D-02
 IDIUse=3 WtCom= 9.34D-01 WtEn= 6.61D-02
 Coeff-Com:  0.315D-01 0.717D-01 0.338D+00 0.559D+00
 Coeff-En:   0.000D+00 0.000D+00 0.227D+00 0.773D+00
 Coeff:      0.294D-01 0.670D-01 0.331D+00 0.573D+00
 Gap=     0.170 Goal=   None    Shift=    0.000
 RMSDP=7.28D-04 MaxDP=1.70D-02 DE=-2.16D-02 OVMax= 4.74D-02

 Cycle   5  Pass 0  IDiag  1:
 RMSU=  2.17D-04    CP:  9.84D-01  6.51D-01  6.29D-01  6.16D-01
 E= -378.855038473799     Delta-E=       -0.006103367969 Rises=F Damp=F
 DIIS: error= 2.17D-03 at cycle   5 NSaved=   5.
 NSaved= 5 IEnMin= 5 EnMin= -378.855038473799     IErMin= 5 ErrMin= 2.17D-03
 ErrMax= 2.17D-03 EMaxC= 1.00D-01 BMatC= 9.37D-04 BMatP= 7.52D-03
 IDIUse=3 WtCom= 9.78D-01 WtEn= 2.17D-02
 Coeff-Com:  0.108D-01 0.513D-03 0.161D+00 0.386D+00 0.441D+00
 Coeff-En:   0.000D+00 0.000D+00 0.000D+00 0.827D-01 0.917D+00
 Coeff:      0.106D-01 0.502D-03 0.158D+00 0.380D+00 0.452D+00
 Gap=     0.169 Goal=   None    Shift=    0.000
 RMSDP=2.24D-04 MaxDP=7.15D-03 DE=-6.10D-03 OVMax= 1.38D-02

 Cycle   6  Pass 0  IDiag  1:
 RMSU=  6.26D-05    CP:  9.83D-01  6.60D-01  6.11D-01  6.96D-01  4.05D-01
 E= -378.855911931437     Delta-E=       -0.000873457638 Rises=F Damp=F
 DIIS: error= 5.31D-04 at cycle   6 NSaved=   6.
 NSaved= 6 IEnMin= 6 EnMin= -378.855911931437     IErMin= 6 ErrMin= 5.31D-04
 ErrMax= 5.31D-04 EMaxC= 1.00D-01 BMatC= 4.31D-05 BMatP= 9.37D-04
 IDIUse=3 WtCom= 9.95D-01 WtEn= 5.31D-03
 Coeff-Com:  0.282D-02-0.649D-02 0.438D-01 0.122D+00 0.233D+00 0.605D+00
 Coeff-En:   0.000D+00 0.000D+00 0.000D+00 0.000D+00 0.000D+00 0.100D+01
 Coeff:      0.281D-02-0.645D-02 0.436D-01 0.121D+00 0.232D+00 0.607D+00
 Gap=     0.169 Goal=   None    Shift=    0.000
 RMSDP=4.97D-05 MaxDP=1.47D-03 DE=-8.73D-04 OVMax= 3.33D-03

 Cycle   7  Pass 0  IDiag  1:
 RMSU=  1.97D-05    CP:  9.83D-01  6.59D-01  6.17D-01  6.91D-01  4.89D-01
                    CP:  6.70D-01
 E= -378.855949877697     Delta-E=       -0.000037946260 Rises=F Damp=F
 DIIS: error= 1.58D-04 at cycle   7 NSaved=   7.
 NSaved= 7 IEnMin= 7 EnMin= -378.855949877697     IErMin= 7 ErrMin= 1.58D-04
 ErrMax= 1.58D-04 EMaxC= 1.00D-01 BMatC= 5.81D-06 BMatP= 4.31D-05
 IDIUse=3 WtCom= 9.98D-01 WtEn= 1.58D-03
 Coeff-Com:  0.100D-02-0.480D-02 0.141D-01 0.426D-01 0.107D+00 0.369D+00
 Coeff-Com:  0.471D+00
 Coeff-En:   0.000D+00 0.000D+00 0.000D+00 0.000D+00 0.000D+00 0.231D-01
 Coeff-En:   0.977D+00
 Coeff:      0.998D-03-0.479D-02 0.141D-01 0.426D-01 0.107D+00 0.368D+00
 Coeff:      0.472D+00
 Gap=     0.170 Goal=   None    Shift=    0.000
 RMSDP=1.51D-05 MaxDP=5.90D-04 DE=-3.79D-05 OVMax= 9.35D-04

 Cycle   8  Pass 0  IDiag  1:
 RMSU=  6.09D-06    CP:  9.83D-01  6.58D-01  6.16D-01  6.93D-01  4.88D-01
                    CP:  7.29D-01  6.35D-01
 E= -378.855954837645     Delta-E=       -0.000004959948 Rises=F Damp=F
 DIIS: error= 3.84D-05 at cycle   8 NSaved=   8.
 NSaved= 8 IEnMin= 8 EnMin= -378.855954837645     IErMin= 8 ErrMin= 3.84D-05
 ErrMax= 3.84D-05 EMaxC= 1.00D-01 BMatC= 3.62D-07 BMatP= 5.81D-06
 IDIUse=1 WtCom= 1.00D+00 WtEn= 0.00D+00
 Coeff-Com:  0.390D-03-0.177D-02 0.268D-02 0.734D-02 0.288D-01 0.127D+00
 Coeff-Com:  0.228D+00 0.607D+00
 Coeff:      0.390D-03-0.177D-02 0.268D-02 0.734D-02 0.288D-01 0.127D+00
 Coeff:      0.228D+00 0.607D+00
 Gap=     0.170 Goal=   None    Shift=    0.000
 RMSDP=5.49D-06 MaxDP=1.24D-04 DE=-4.96D-06 OVMax= 3.07D-04

 Initial convergence to 1.0D-05 achieved.  Increase integral accuracy.
 Cycle   9  Pass 1  IDiag  1:
 E= -378.855930883621     Delta-E=        0.000023954024 Rises=F Damp=F
 DIIS: error= 2.15D-05 at cycle   1 NSaved=   1.
 NSaved= 1 IEnMin= 1 EnMin= -378.855930883621     IErMin= 1 ErrMin= 2.15D-05
 ErrMax= 2.15D-05 EMaxC= 1.00D-01 BMatC= 1.28D-07 BMatP= 1.28D-07
 IDIUse=1 WtCom= 1.00D+00 WtEn= 0.00D+00
 Coeff-Com:  0.100D+01
 Coeff:      0.100D+01
 Gap=     0.170 Goal=   None    Shift=    0.000
 RMSDP=5.49D-06 MaxDP=1.24D-04 DE= 2.40D-05 OVMax= 3.93D-04

 Cycle  10  Pass 1  IDiag  1:
 RMSU=  5.43D-06    CP:  1.00D+00
 E= -378.855930738842     Delta-E=        0.000000144779 Rises=F Damp=F
 DIIS: error= 3.72D-05 at cycle   2 NSaved=   2.
 NSaved= 2 IEnMin= 1 EnMin= -378.855930883621     IErMin= 1 ErrMin= 2.15D-05
 ErrMax= 3.72D-05 EMaxC= 1.00D-01 BMatC= 2.86D-07 BMatP= 1.28D-07
 IDIUse=1 WtCom= 1.00D+00 WtEn= 0.00D+00
 Coeff-Com:  0.614D+00 0.386D+00
 Coeff:      0.614D+00 0.386D+00
 Gap=     0.170 Goal=   None    Shift=    0.000
 RMSDP=4.38D-06 MaxDP=1.39D-04 DE= 1.45D-07 OVMax= 3.44D-04

 Cycle  11  Pass 1  IDiag  1:
 RMSU=  2.10D-06    CP:  1.00D+00  5.85D-01
 E= -378.855931012478     Delta-E=       -0.000000273636 Rises=F Damp=F
 DIIS: error= 1.15D-05 at cycle   3 NSaved=   3.
 NSaved= 3 IEnMin= 3 EnMin= -378.855931012478     IErMin= 3 ErrMin= 1.15D-05
 ErrMax= 1.15D-05 EMaxC= 1.00D-01 BMatC= 1.85D-08 BMatP= 1.28D-07
 IDIUse=1 WtCom= 1.00D+00 WtEn= 0.00D+00
 Coeff-Com:  0.107D+00 0.207D+00 0.686D+00
 Coeff:      0.107D+00 0.207D+00 0.686D+00
 Gap=     0.170 Goal=   None    Shift=    0.000
 RMSDP=1.25D-06 MaxDP=3.93D-05 DE=-2.74D-07 OVMax= 7.94D-05

 Cycle  12  Pass 1  IDiag  1:
 RMSU=  6.78D-07    CP:  1.00D+00  6.61D-01  8.18D-01
 E= -378.855931024897     Delta-E=       -0.000000012419 Rises=F Damp=F
 DIIS: error= 6.03D-06 at cycle   4 NSaved=   4.
 NSaved= 4 IEnMin= 4 EnMin= -378.855931024897     IErMin= 4 ErrMin= 6.03D-06
 ErrMax= 6.03D-06 EMaxC= 1.00D-01 BMatC= 5.73D-09 BMatP= 1.85D-08
 IDIUse=1 WtCom= 1.00D+00 WtEn= 0.00D+00
 Coeff-Com: -0.733D-02 0.908D-01 0.453D+00 0.464D+00
 Coeff:     -0.733D-02 0.908D-01 0.453D+00 0.464D+00
 Gap=     0.170 Goal=   None    Shift=    0.000
 RMSDP=5.80D-07 MaxDP=2.20D-05 DE=-1.24D-08 OVMax= 3.48D-05

 Cycle  13  Pass 1  IDiag  1:
 RMSU=  1.81D-07    CP:  1.00D+00  6.64D-01  8.44D-01  4.66D-01
 E= -378.855931029316     Delta-E=       -0.000000004419 Rises=F Damp=F
 DIIS: error= 1.89D-06 at cycle   5 NSaved=   5.
 NSaved= 5 IEnMin= 5 EnMin= -378.855931029316     IErMin= 5 ErrMin= 1.89D-06
 ErrMax= 1.89D-06 EMaxC= 1.00D-01 BMatC= 4.74D-10 BMatP= 5.73D-09
 IDIUse=1 WtCom= 1.00D+00 WtEn= 0.00D+00
 Coeff-Com: -0.102D-01 0.454D-01 0.242D+00 0.300D+00 0.423D+00
 Coeff:     -0.102D-01 0.454D-01 0.242D+00 0.300D+00 0.423D+00
 Gap=     0.170 Goal=   None    Shift=    0.000
 RMSDP=1.43D-07 MaxDP=4.18D-06 DE=-4.42D-09 OVMax= 6.24D-06

 Cycle  14  Pass 1  IDiag  1:
 RMSU=  4.51D-08    CP:  1.00D+00  6.66D-01  8.51D-01  5.18D-01  5.55D-01
 E= -378.855931029708     Delta-E=       -0.000000000391 Rises=F Damp=F
 DIIS: error= 2.73D-07 at cycle   6 NSaved=   6.
 NSaved= 6 IEnMin= 6 EnMin= -378.855931029708     IErMin= 6 ErrMin= 2.73D-07
 ErrMax= 2.73D-07 EMaxC= 1.00D-01 BMatC= 1.36D-11 BMatP= 4.74D-10
 IDIUse=1 WtCom= 1.00D+00 WtEn= 0.00D+00
 Coeff-Com: -0.434D-02 0.150D-01 0.787D-01 0.113D+00 0.201D+00 0.597D+00
 Coeff:     -0.434D-02 0.150D-01 0.787D-01 0.113D+00 0.201D+00 0.597D+00
 Gap=     0.170 Goal=   None    Shift=    0.000
 RMSDP=3.10D-08 MaxDP=9.50D-07 DE=-3.91D-10 OVMax= 1.80D-06

 Cycle  15  Pass 1  IDiag  1:
 RMSU=  1.82D-08    CP:  1.00D+00  6.67D-01  8.51D-01  5.16D-01  5.83D-01
                    CP:  7.63D-01
 E= -378.855931029710     Delta-E=       -0.000000000003 Rises=F Damp=F
 DIIS: error= 1.38D-07 at cycle   7 NSaved=   7.
 NSaved= 7 IEnMin= 7 EnMin= -378.855931029710     IErMin= 7 ErrMin= 1.38D-07
 ErrMax= 1.38D-07 EMaxC= 1.00D-01 BMatC= 3.80D-12 BMatP= 1.36D-11
 IDIUse=1 WtCom= 1.00D+00 WtEn= 0.00D+00
 Coeff-Com: -0.156D-02 0.452D-02 0.217D-01 0.385D-01 0.771D-01 0.375D+00
 Coeff-Com:  0.484D+00
 Coeff:     -0.156D-02 0.452D-02 0.217D-01 0.385D-01 0.771D-01 0.375D+00
 Coeff:      0.484D+00
 Gap=     0.170 Goal=   None    Shift=    0.000
 RMSDP=1.59D-08 MaxDP=4.77D-07 DE=-2.50D-12 OVMax= 9.76D-07

 Cycle  16  Pass 1  IDiag  1:
 RMSU=  5.96D-09    CP:  1.00D+00  6.67D-01  8.50D-01  5.22D-01  5.81D-01
                    CP:  8.47D-01  5.98D-01
 E= -378.855931029717     Delta-E=       -0.000000000007 Rises=F Damp=F
 DIIS: error= 4.37D-08 at cycle   8 NSaved=   8.
 NSaved= 8 IEnMin= 8 EnMin= -378.855931029717     IErMin= 8 ErrMin= 4.37D-08
 ErrMax= 4.37D-08 EMaxC= 1.00D-01 BMatC= 3.48D-13 BMatP= 3.80D-12
 IDIUse=1 WtCom= 1.00D+00 WtEn= 0.00D+00
 Coeff-Com: -0.316D-04-0.269D-03-0.331D-02 0.411D-03 0.351D-02 0.754D-01
 Coeff-Com:  0.257D+00 0.667D+00
 Coeff:     -0.316D-04-0.269D-03-0.331D-02 0.411D-03 0.351D-02 0.754D-01
 Coeff:      0.257D+00 0.667D+00
 Gap=     0.170 Goal=   None    Shift=    0.000
 RMSDP=4.38D-09 MaxDP=1.12D-07 DE=-6.59D-12 OVMax= 3.03D-07

 SCF Done:  E(RB3LYP) =  -378.855931030     A.U. after   16 cycles
             Convg  =    0.4383D-08             -V/T =  2.0092
 KE= 3.754192662100D+02 PE=-1.600035408418D+03 EE= 4.867645963119D+02
 Leave Link  502 at Wed Aug  6 09:14:06 2014, MaxMem=   33554432 cpu:      54.8
 (Enter /apps/gaussian/g09_C01.binary_dist/em64t/g09/l601.exe)
 Copying SCF densities to generalized density rwf, IOpCl= 0 IROHF=0.

 **********************************************************************

            Population analysis using the SCF density.

 **********************************************************************

 Alpha  occ. eigenvalues --  -19.11071 -14.41083 -14.35002 -10.28394 -10.25693
 Alpha  occ. eigenvalues --  -10.23931 -10.22959 -10.22688  -1.04744  -0.97724
 Alpha  occ. eigenvalues --   -0.91935  -0.78097  -0.74095  -0.66544  -0.64242
 Alpha  occ. eigenvalues --   -0.54482  -0.53418  -0.49125  -0.48483  -0.44694
 Alpha  occ. eigenvalues --   -0.43809  -0.42651  -0.41280  -0.39956  -0.35424
 Alpha  occ. eigenvalues --   -0.32707  -0.28322  -0.23609  -0.22696
 Alpha virt. eigenvalues --   -0.05738   0.00371   0.08005   0.10975   0.12418
 Alpha virt. eigenvalues --    0.12580   0.13915   0.16103   0.16545   0.16637
 Alpha virt. eigenvalues --    0.21276   0.26829   0.27597   0.33698   0.36350
 Alpha virt. eigenvalues --    0.42205   0.44219   0.47111   0.48063   0.50825
 Alpha virt. eigenvalues --    0.52507   0.54010   0.56210   0.57879   0.59402
 Alpha virt. eigenvalues --    0.63914   0.65330   0.66269   0.67375   0.69469
 Alpha virt. eigenvalues --    0.73319   0.76894   0.79188   0.81049   0.82059
 Alpha virt. eigenvalues --    0.82672   0.86564   0.87314   0.89321   0.89363
 Alpha virt. eigenvalues --    0.90263   0.90937   0.98951   1.02833   1.04332
 Alpha virt. eigenvalues --    1.07801   1.10113   1.14202   1.17398   1.21720
 Alpha virt. eigenvalues --    1.24720   1.25544   1.33996   1.38202   1.38330
 Alpha virt. eigenvalues --    1.40975   1.41769   1.43024   1.50081   1.65171
 Alpha virt. eigenvalues --    1.68703   1.73024   1.73643   1.76572   1.79550
 Alpha virt. eigenvalues --    1.81426   1.84346   1.89932   1.90916   1.91683
 Alpha virt. eigenvalues --    1.92628   1.93284   1.98963   2.01432   2.03803
 Alpha virt. eigenvalues --    2.05881   2.07502   2.08151   2.12429   2.14823
 Alpha virt. eigenvalues --    2.19743   2.27422   2.31999   2.32178   2.36650
 Alpha virt. eigenvalues --    2.37957   2.40635   2.43241   2.45058   2.47592
 Alpha virt. eigenvalues --    2.51028   2.54871   2.61084   2.61369   2.62604
 Alpha virt. eigenvalues --    2.67351   2.67523   2.72283   2.73687   2.81852
 Alpha virt. eigenvalues --    2.84910   2.90898   2.96123   3.02494   3.06962
 Alpha virt. eigenvalues --    3.15830   3.20104   3.26988   3.33338   3.40138
 Alpha virt. eigenvalues --    3.42686   3.47650   3.75548   3.95001   4.04448
 Alpha virt. eigenvalues --    4.18155   4.24819   4.37913   4.47203   4.56086
 Alpha virt. eigenvalues --    4.69194
          Condensed to atoms (all electrons):
              1          2          3          4          5          6
     1  C    4.792151  -0.016457   0.000288   0.538298  -0.030434  -0.042735
     2  C   -0.016457   4.425604   0.554873  -0.017972   0.001900   0.185304
     3  O    0.000288   0.554873   8.126337   0.003635  -0.000115  -0.114734
     4  C    0.538298  -0.017972   0.003635   4.774304   0.356043   0.358536
     5  H   -0.030434   0.001900  -0.000115   0.356043   0.600304  -0.048075
     6  N   -0.042735   0.185304  -0.114734   0.358536  -0.048075   7.070901
     7  C    0.004772  -0.023015   0.010940  -0.042673  -0.007094   0.275095
     8  H   -0.000174  -0.003144   0.005332   0.001460   0.000153  -0.036523
     9  H   -0.000174  -0.003145   0.005336   0.001460   0.000153  -0.036524
    10  H    0.000532   0.004650   0.000937  -0.001433   0.003542  -0.036577
    11  H    0.398469   0.000213   0.000003  -0.056940   0.000026   0.002718
    12  N    0.385874  -0.018489   0.005117  -0.032971   0.005434  -0.028964
    13  C   -0.064280   0.402698  -0.067011  -0.021158  -0.000629  -0.082621
    14  H    0.003997  -0.058443   0.003818  -0.000118   0.000034   0.004796
              7          8          9         10         11         12
     1  C    0.004772  -0.000174  -0.000174   0.000532   0.398469   0.385874
     2  C   -0.023015  -0.003144  -0.003145   0.004650   0.000213  -0.018489
     3  O    0.010940   0.005332   0.005336   0.000937   0.000003   0.005117
     4  C   -0.042673   0.001460   0.001460  -0.001433  -0.056940  -0.032971
     5  H   -0.007094   0.000153   0.000153   0.003542   0.000026   0.005434
     6  N    0.275095  -0.036523  -0.036524  -0.036577   0.002718  -0.028964
     7  C    4.790432   0.389728   0.389723   0.376555  -0.000133  -0.000412
     8  H    0.389728   0.551530  -0.034457  -0.028727   0.000003   0.000001
     9  H    0.389723  -0.034457   0.551530  -0.028728   0.000003   0.000001
    10  H    0.376555  -0.028727  -0.028728   0.596282  -0.000008  -0.000022
    11  H   -0.000133   0.000003   0.000003  -0.000008   0.572260  -0.037291
    12  N   -0.000412   0.000001   0.000001  -0.000022  -0.037291   6.755185
    13  C    0.006813  -0.000052  -0.000052  -0.000096   0.002362   0.435901
    14  H   -0.000141  -0.000002  -0.000002   0.000002  -0.000055  -0.045192
             13         14
     1  C   -0.064280   0.003997
     2  C    0.402698  -0.058443
     3  O   -0.067011   0.003818
     4  C   -0.021158  -0.000118
     5  H   -0.000629   0.000034
     6  N   -0.082621   0.004796
     7  C    0.006813  -0.000141
     8  H   -0.000052  -0.000002
     9  H   -0.000052  -0.000002
    10  H   -0.000096   0.000002
    11  H    0.002362  -0.000055
    12  N    0.435901  -0.045192
    13  C    4.928905   0.383531
    14  H    0.383531   0.578144
 Mulliken atomic charges:
              1
     1  C    0.029872
     2  C    0.565422
     3  O   -0.534755
     4  C    0.139529
     5  H    0.118758
     6  N   -0.470596
     7  C   -0.170589
     8  H    0.154874
     9  H    0.154877
    10  H    0.113092
    11  H    0.118371
    12  N   -0.424173
    13  C    0.075688
    14  H    0.129631
 Sum of Mulliken atomic charges =   0.00000
 Mulliken charges with hydrogens summed into heavy atoms:
              1
     1  C    0.148243
     2  C    0.565422
     3  O   -0.534755
     4  C    0.258287
     6  N   -0.470596
     7  C    0.252253
    12  N   -0.424173
    13  C    0.205320
 Sum of Mulliken charges with hydrogens summed into heavy atoms =   0.00000
 Electronic spatial extent (au):  <R**2>=           2089.8479
 Charge=              0.0000 electrons
 Dipole moment (field-independent basis, Debye):
    X=             -2.1791    Y=              3.4701    Z=              0.0015  Tot=              4.0976
 Quadrupole moment (field-independent basis, Debye-Ang):
   XX=            -45.2938   YY=            -26.5963   ZZ=            -46.2149
   XY=            -11.2388   XZ=             -0.0017   YZ=              0.0059
 Traceless Quadrupole moment (field-independent basis, Debye-Ang):
   XX=             -5.9255   YY=             12.7720   ZZ=             -6.8465
   XY=            -11.2388   XZ=             -0.0017   YZ=              0.0059
 Octapole moment (field-independent basis, Debye-Ang**2):
  XXX=            149.7149  YYY=           -210.0908  ZZZ=             -0.0486  XYY=             24.4122
  XXY=            -77.2953  XXZ=             -0.0040  XZZ=             60.9743  YZZ=           -100.1787
  YYZ=              0.0046  XYZ=             -0.0079
 Hexadecapole moment (field-independent basis, Debye-Ang**3):
 XXXX=           -826.1041 YYYY=          -1397.8752 ZZZZ=            -49.1335 XXXY=            234.7105
 XXXZ=              0.0557 YYYX=            215.7308 YYYZ=             -0.0649 ZZZX=              0.1076
 ZZZY=             -0.1517 XXYY=           -382.2598 XXZZ=           -174.8586 YYZZ=           -308.8454
 XXYZ=             -0.0140 YYXZ=              0.0014 ZZXY=            120.5598
 N-N= 3.589956148660D+02 E-N=-1.600035410600D+03  KE= 3.754192662100D+02
 There are a total of      109434 grid points.
 ElSum from          density=       57.9999051702
 ElSum from atomic densities=       57.9998374792
 Hirshfeld populations (CA, CB, DipXYZ):
              1          2          3          4          5
     1  C    3.007956   3.007956   0.436903   0.085799  -0.000081
     2  C    2.918733   2.918733   0.015753   0.067460  -0.000253
     3  O    4.161489   4.161489  -1.871025   0.040024   0.000621
     4  C    2.986260   2.986260   0.276883  -0.281867  -0.000113
     5  H    0.467807   0.467807   0.593709  -0.978513  -0.000332
     6  N    3.520287   3.520287  -0.067564  -0.052506  -0.000024
     7  C    3.010721   3.010721  -0.097659  -0.219980  -0.000026
     8  H    0.471006   0.471006  -0.660544  -0.130250  -0.945755
     9  H    0.471007   0.471007  -0.660080  -0.130705   0.946012
    10  H    0.473939   0.473939   0.609823  -0.942522  -0.000381
    11  H    0.468152   0.468152   1.156598   0.075404  -0.000221
    12  N    3.592524   3.592524   0.964626   1.415601   0.000144
    13  C    2.985085   2.985085  -0.238413   0.338545   0.000132
    14  H    0.464986   0.464986  -0.538861   1.065439   0.000411
       Tot  28.999953  28.999953  -0.079851   0.351930   0.000133
 Hirshfeld spin densities, charges and dipoles using IRadAn=      4:
              1          2          3          4          5
     1  C    0.000000  -0.015913   0.436903   0.085799  -0.000081
     2  C    0.000000   0.162534   0.015753   0.067460  -0.000253
     3  O    0.000000  -0.322978  -1.871025   0.040024   0.000621
     4  C    0.000000   0.027481   0.276883  -0.281867  -0.000113
     5  H    0.000000   0.064386   0.593709  -0.978513  -0.000332
     6  N    0.000000  -0.040574  -0.067564  -0.052506  -0.000024
     7  C    0.000000  -0.021442  -0.097659  -0.219980  -0.000026
     8  H    0.000000   0.057987  -0.660544  -0.130250  -0.945755
     9  H    0.000000   0.057987  -0.660080  -0.130705   0.946012
    10  H    0.000000   0.052121   0.609823  -0.942522  -0.000381
    11  H    0.000000   0.063695   1.156598   0.075404  -0.000221
    12  N    0.000000  -0.185049   0.964626   1.415601   0.000144
    13  C    0.000000   0.029831  -0.238413   0.338545   0.000132
    14  H    0.000000   0.070027  -0.538861   1.065439   0.000411
       Tot   0.000000   0.000095  -0.079851   0.351930   0.000133
 Dip from Atomic Chgs             -0.777618   1.013776   0.000471
         Total Dipole             -0.857469   1.365706   0.000604
 EQQ=-0.336698545647E-01 EQD= 0.313845196885E-01 EDD= 0.297479054146    
 EQQ+QD+DD= 0.295193719270    
 Hirshfeld charges with hydrogens summed into heavy atoms:
              1
     1  C    0.047782
     2  C    0.162534
     3  O   -0.322978
     4  C    0.091867
     5  H    0.000000
     6  N   -0.040574
     7  C    0.146654
     8  H    0.000000
     9  H    0.000000
    10  H    0.000000
    11  H    0.000000
    12  N   -0.185049
    13  C    0.099858
    14  H    0.000000
 Sum of Hirshfeld charges=  0.000095
 No NMR shielding tensors so no spin-rotation constants.
 Leave Link  601 at Wed Aug  6 09:14:07 2014, MaxMem=   33554432 cpu:       6.6
 (Enter /apps/gaussian/g09_C01.binary_dist/em64t/g09/l602.exe)
 Merz-Kollman atomic radii used.

 **********************************************************************

            Electrostatic Properties Using The SCF Density

 **********************************************************************

       Atomic Center    1 is at  -3.146888  1.798734  0.000653
       Atomic Center    2 is at  -0.340368  1.767027  0.000120
       Atomic Center    3 is at   0.876827  1.846956 -0.000286
       Atomic Center    4 is at  -2.456991  2.979091  0.000779
       Atomic Center    5 is at  -2.941904  3.950609  0.001091
       Atomic Center    6 is at  -1.102920  2.983242  0.000523
       Atomic Center    7 is at  -0.330154  4.224517  0.000628
       Atomic Center    8 is at   0.313372  4.258008  0.882227
       Atomic Center    9 is at   0.312943  4.258437 -0.881269
       Atomic Center   10 is at  -1.015014  5.073993  0.000999
       Atomic Center   11 is at  -4.228313  1.775441  0.000870
       Atomic Center   12 is at  -2.362571  0.615185  0.000210
       Atomic Center   13 is at  -1.053934  0.580376 -0.000072
       Atomic Center   14 is at  -0.539631 -0.357916 -0.000448
     814 points will be used for fitting atomic charges
 Fitting point charges to electrostatic potential
 Charges from ESP fit, RMS=   0.00177 RRMS=   0.09678:
 Charge=   0.00000 Dipole=    -2.2225     3.4568     0.0016 Tot=     4.1096
              1
     1  C    0.244350
     2  C    0.225644
     3  O   -0.502250
     4  C   -0.433463
     5  H    0.195088
     6  N    0.393175
     7  C   -0.467215
     8  H    0.166553
     9  H    0.166561
    10  H    0.152731
    11  H    0.076716
    12  N   -0.556266
    13  C    0.281566
    14  H    0.056810
 Charges from ESP fit with hydrogens summed into heavy atoms:
              1
     1  C    0.321067
     2  C    0.225644
     3  O   -0.502250
     4  C   -0.238375
     5  H    0.000000
     6  N    0.393175
     7  C    0.018630
     8  H    0.000000
     9  H    0.000000
    10  H    0.000000
    11  H    0.000000
    12  N   -0.556266
    13  C    0.338376
    14  H    0.000000
 -----------------------------------------------------------------

              Electrostatic Properties (Atomic Units)

 -----------------------------------------------------------------
    Center     Electric         -------- Electric Field --------
               Potential          X             Y             Z
 -----------------------------------------------------------------
    1 Atom    -14.694529
    2 Atom    -14.645563
    3 Atom    -22.355887
    4 Atom    -14.671851
    5 Atom     -1.063757
    6 Atom    -18.270858
    7 Atom    -14.684128
    8 Atom     -1.094759
    9 Atom     -1.094761
   10 Atom     -1.082905
   11 Atom     -1.086334
   12 Atom    -18.340967
   13 Atom    -14.703058
   14 Atom     -1.097037
 -----------------------------------------------------------------
 Leave Link  602 at Wed Aug  6 09:14:08 2014, MaxMem=   33554432 cpu:       0.3
 (Enter /apps/gaussian/g09_C01.binary_dist/em64t/g09/l607.exe)
 ******************************Gaussian NBO Version 3.1******************************
             N A T U R A L   A T O M I C   O R B I T A L   A N D
          N A T U R A L   B O N D   O R B I T A L   A N A L Y S I S
 ******************************Gaussian NBO Version 3.1******************************
       /RESON  / : Allow strongly delocalized NBO set

 Analyzing the SCF density

 Job title: Title Card Required                                             

 Storage needed:     68252 in NPA (  33553312 available)


 NATURAL POPULATIONS:  Natural atomic orbital occupancies 
                                                          
   NAO  Atom  No  lang   Type(AO)    Occupancy      Energy
 ----------------------------------------------------------
     1    C    1  S      Cor( 1S)     1.99909     -10.10119
     2    C    1  S      Val( 2S)     0.95295      -0.19927
     3    C    1  S      Ryd( 3S)     0.00107       1.01946
     4    C    1  S      Ryd( 4S)     0.00005       4.00982
     5    C    1  px     Val( 2p)     1.15266      -0.06317
     6    C    1  px     Ryd( 3p)     0.00470       1.00731
     7    C    1  py     Val( 2p)     0.90913      -0.03846
     8    C    1  py     Ryd( 3p)     0.00835       0.59802
     9    C    1  pz     Val( 2p)     1.08288      -0.12890
    10    C    1  pz     Ryd( 3p)     0.00193       0.58787
    11    C    1  dxy    Ryd( 3d)     0.00112       2.40440
    12    C    1  dxz    Ryd( 3d)     0.00050       1.89732
    13    C    1  dyz    Ryd( 3d)     0.00061       1.92881
    14    C    1  dx2y2  Ryd( 3d)     0.00150       2.53996
    15    C    1  dz2    Ryd( 3d)     0.00045       2.34422

    16    C    2  S      Cor( 1S)     1.99920     -10.15166
    17    C    2  S      Val( 2S)     0.78898      -0.12153
    18    C    2  S      Ryd( 3S)     0.00477       1.28474
    19    C    2  S      Ryd( 4S)     0.00043       3.41358
    20    C    2  px     Val( 2p)     0.79972       0.00553
    21    C    2  px     Ryd( 3p)     0.01795       0.88948
    22    C    2  py     Val( 2p)     0.92333      -0.02834
    23    C    2  py     Ryd( 3p)     0.00616       0.87569
    24    C    2  pz     Val( 2p)     0.87065      -0.11928
    25    C    2  pz     Ryd( 3p)     0.00119       0.60886
    26    C    2  dxy    Ryd( 3d)     0.00321       2.69110
    27    C    2  dxz    Ryd( 3d)     0.00226       2.25073
    28    C    2  dyz    Ryd( 3d)     0.00054       1.93100
    29    C    2  dx2y2  Ryd( 3d)     0.00113       2.61033
    30    C    2  dz2    Ryd( 3d)     0.00032       2.43018

    31    O    3  S      Cor( 1S)     1.99981     -18.84661
    32    O    3  S      Val( 2S)     1.69341      -0.85750
    33    O    3  S      Ryd( 3S)     0.00059       2.18041
    34    O    3  S      Ryd( 4S)     0.00011       3.45874
    35    O    3  px     Val( 2p)     1.57097      -0.27521
    36    O    3  px     Ryd( 3p)     0.00040       1.38963
    37    O    3  py     Val( 2p)     1.85486      -0.23326
    38    O    3  py     Ryd( 3p)     0.00179       1.22957
    39    O    3  pz     Val( 2p)     1.48022      -0.22237
    40    O    3  pz     Ryd( 3p)     0.00113       1.03851
    41    O    3  dxy    Ryd( 3d)     0.00439       2.08242
    42    O    3  dxz    Ryd( 3d)     0.00448       1.88450
    43    O    3  dyz    Ryd( 3d)     0.00002       1.82865
    44    O    3  dx2y2  Ryd( 3d)     0.00412       2.39160
    45    O    3  dz2    Ryd( 3d)     0.00128       2.07665

    46    C    4  S      Cor( 1S)     1.99914     -10.11555
    47    C    4  S      Val( 2S)     0.93583      -0.20020
    48    C    4  S      Ryd( 3S)     0.00152       0.95719
    49    C    4  S      Ryd( 4S)     0.00010       3.99956
    50    C    4  px     Val( 2p)     0.89304      -0.03747
    51    C    4  px     Ryd( 3p)     0.00389       0.69055
    52    C    4  py     Val( 2p)     1.19465      -0.09750
    53    C    4  py     Ryd( 3p)     0.00538       0.97129
    54    C    4  pz     Val( 2p)     0.94905      -0.14366
    55    C    4  pz     Ryd( 3p)     0.00120       0.56640
    56    C    4  dxy    Ryd( 3d)     0.00078       2.56230
    57    C    4  dxz    Ryd( 3d)     0.00137       1.93734
    58    C    4  dyz    Ryd( 3d)     0.00051       1.88105
    59    C    4  dx2y2  Ryd( 3d)     0.00120       2.45977
    60    C    4  dz2    Ryd( 3d)     0.00043       2.33358

    61    H    5  S      Val( 1S)     0.76325       0.04977
    62    H    5  S      Ryd( 2S)     0.00135       0.55579
    63    H    5  px     Ryd( 2p)     0.00013       2.59941
    64    H    5  py     Ryd( 2p)     0.00036       2.88903
    65    H    5  pz     Ryd( 2p)     0.00011       2.19304

    66    N    6  S      Cor( 1S)     1.99931     -14.23824
    67    N    6  S      Val( 2S)     1.21697      -0.54064
    68    N    6  S      Ryd( 3S)     0.00156       1.51752
    69    N    6  S      Ryd( 4S)     0.00002       3.97595
    70    N    6  px     Val( 2p)     1.31434      -0.27284
    71    N    6  px     Ryd( 3p)     0.00159       1.27122
    72    N    6  py     Val( 2p)     1.31933      -0.26881
    73    N    6  py     Ryd( 3p)     0.00296       1.38573
    74    N    6  pz     Val( 2p)     1.54021      -0.27139
    75    N    6  pz     Ryd( 3p)     0.00268       0.84945
    76    N    6  dxy    Ryd( 3d)     0.00062       2.51925
    77    N    6  dxz    Ryd( 3d)     0.00073       1.90820
    78    N    6  dyz    Ryd( 3d)     0.00036       1.86867
    79    N    6  dx2y2  Ryd( 3d)     0.00076       2.51462
    80    N    6  dz2    Ryd( 3d)     0.00049       2.33066

    81    C    7  S      Cor( 1S)     1.99947     -10.11663
    82    C    7  S      Val( 2S)     1.09433      -0.28361
    83    C    7  S      Ryd( 3S)     0.00104       1.18475
    84    C    7  S      Ryd( 4S)     0.00002       4.31927
    85    C    7  px     Val( 2p)     1.15516      -0.10996
    86    C    7  px     Ryd( 3p)     0.00356       0.61196
    87    C    7  py     Val( 2p)     0.94810      -0.09033
    88    C    7  py     Ryd( 3p)     0.00345       0.60142
    89    C    7  pz     Val( 2p)     1.26874      -0.12005
    90    C    7  pz     Ryd( 3p)     0.00091       0.57875
    91    C    7  dxy    Ryd( 3d)     0.00126       2.42069
    92    C    7  dxz    Ryd( 3d)     0.00101       2.50202
    93    C    7  dyz    Ryd( 3d)     0.00041       1.98555
    94    C    7  dx2y2  Ryd( 3d)     0.00043       2.23420
    95    C    7  dz2    Ryd( 3d)     0.00082       2.35989

    96    H    8  S      Val( 1S)     0.74209       0.07375
    97    H    8  S      Ryd( 2S)     0.00148       0.62883
    98    H    8  px     Ryd( 2p)     0.00019       2.56122
    99    H    8  py     Ryd( 2p)     0.00007       2.30380
   100    H    8  pz     Ryd( 2p)     0.00026       2.76842

   101    H    9  S      Val( 1S)     0.74209       0.07376
   102    H    9  S      Ryd( 2S)     0.00148       0.62883
   103    H    9  px     Ryd( 2p)     0.00019       2.56091
   104    H    9  py     Ryd( 2p)     0.00007       2.30383
   105    H    9  pz     Ryd( 2p)     0.00026       2.76868

   106    H   10  S      Val( 1S)     0.76685       0.04836
   107    H   10  S      Ryd( 2S)     0.00068       0.63456
   108    H   10  px     Ryd( 2p)     0.00015       2.54197
   109    H   10  py     Ryd( 2p)     0.00028       2.71419
   110    H   10  pz     Ryd( 2p)     0.00007       2.28248

   111    H   11  S      Val( 1S)     0.75411       0.08386
   112    H   11  S      Ryd( 2S)     0.00068       0.55133
   113    H   11  px     Ryd( 2p)     0.00045       3.02177
   114    H   11  py     Ryd( 2p)     0.00003       2.49508
   115    H   11  pz     Ryd( 2p)     0.00014       2.21821

   116    N   12  S      Cor( 1S)     1.99948     -14.17321
   117    N   12  S      Val( 2S)     1.36574      -0.52025
   118    N   12  S      Ryd( 3S)     0.00052       1.64613
   119    N   12  S      Ryd( 4S)     0.00002       3.85736
   120    N   12  px     Val( 2p)     1.35277      -0.18123
   121    N   12  px     Ryd( 3p)     0.00363       1.08103
   122    N   12  py     Val( 2p)     1.58264      -0.19848
   123    N   12  py     Ryd( 3p)     0.00582       0.98649
   124    N   12  pz     Val( 2p)     1.08483      -0.17956
   125    N   12  pz     Ryd( 3p)     0.00044       0.81914
   126    N   12  dxy    Ryd( 3d)     0.00147       2.38547
   127    N   12  dxz    Ryd( 3d)     0.00124       1.98017
   128    N   12  dyz    Ryd( 3d)     0.00110       1.84848
   129    N   12  dx2y2  Ryd( 3d)     0.00113       2.52749
   130    N   12  dz2    Ryd( 3d)     0.00082       2.27497

   131    C   13  S      Cor( 1S)     1.99907     -10.08609
   132    C   13  S      Val( 2S)     0.95347      -0.17608
   133    C   13  S      Ryd( 3S)     0.00300       1.00505
   134    C   13  S      Ryd( 4S)     0.00016       3.96388
   135    C   13  px     Val( 2p)     0.93900      -0.01834
   136    C   13  px     Ryd( 3p)     0.00903       0.75041
   137    C   13  py     Val( 2p)     1.16324      -0.06050
   138    C   13  py     Ryd( 3p)     0.00483       0.95507
   139    C   13  pz     Val( 2p)     0.96278      -0.12131
   140    C   13  pz     Ryd( 3p)     0.00173       0.58867
   141    C   13  dxy    Ryd( 3d)     0.00189       2.60703
   142    C   13  dxz    Ryd( 3d)     0.00102       1.96984
   143    C   13  dyz    Ryd( 3d)     0.00038       1.91491
   144    C   13  dx2y2  Ryd( 3d)     0.00108       2.51887
   145    C   13  dz2    Ryd( 3d)     0.00038       2.39433

   146    H   14  S      Val( 1S)     0.75534       0.09871
   147    H   14  S      Ryd( 2S)     0.00146       0.57544
   148    H   14  px     Ryd( 2p)     0.00011       2.68395
   149    H   14  py     Ryd( 2p)     0.00037       2.92280
   150    H   14  pz     Ryd( 2p)     0.00008       2.24325


 Summary of Natural Population Analysis:                  
                                                          
                                       Natural Population 
                Natural  -----------------------------------------------
    Atom  No    Charge         Core      Valence    Rydberg      Total
 -----------------------------------------------------------------------
      C    1   -0.11701      1.99909     4.09763    0.02029     6.11701
      C    2    0.58016      1.99920     3.38268    0.03795     5.41984
      O    3   -0.61757      1.99981     6.59946    0.01830     8.61757
      C    4    0.01193      1.99914     3.97257    0.01637     5.98807
      H    5    0.23481      0.00000     0.76325    0.00194     0.76519
      N    6   -0.40192      1.99931     5.39085    0.01176     7.40192
      C    7   -0.47873      1.99947     4.46634    0.01292     6.47873
      H    8    0.25591      0.00000     0.74209    0.00200     0.74409
      H    9    0.25591      0.00000     0.74209    0.00200     0.74409
      H   10    0.23197      0.00000     0.76685    0.00118     0.76803
      H   11    0.24458      0.00000     0.75411    0.00131     0.75542
      N   12   -0.40163      1.99948     5.38598    0.01617     7.40163
      C   13   -0.04107      1.99907     4.01850    0.02351     6.04107
      H   14    0.24265      0.00000     0.75534    0.00201     0.75735
 =======================================================================
   * Total *    0.00000     15.99456    41.83771    0.16773    58.00000

                                 Natural Population      
 --------------------------------------------------------
   Core                      15.99456 ( 99.9660% of  16)
   Valence                   41.83771 ( 99.6136% of  42)
   Natural Minimal Basis     57.83227 ( 99.7108% of  58)
   Natural Rydberg Basis      0.16773 (  0.2892% of  58)
 --------------------------------------------------------

    Atom  No          Natural Electron Configuration
 ----------------------------------------------------------------------------
      C    1      [core]2S( 0.95)2p( 3.14)3p( 0.01)
      C    2      [core]2S( 0.79)2p( 2.59)3p( 0.03)3d( 0.01)
      O    3      [core]2S( 1.69)2p( 4.91)3d( 0.01)
      C    4      [core]2S( 0.94)2p( 3.04)3p( 0.01)
      H    5            1S( 0.76)
      N    6      [core]2S( 1.22)2p( 4.17)3p( 0.01)
      C    7      [core]2S( 1.09)2p( 3.37)3p( 0.01)
      H    8            1S( 0.74)
      H    9            1S( 0.74)
      H   10            1S( 0.77)
      H   11            1S( 0.75)
      N   12      [core]2S( 1.37)2p( 4.02)3p( 0.01)3d( 0.01)
      C   13      [core]2S( 0.95)2p( 3.07)3p( 0.02)
      H   14            1S( 0.76)


 NBO analysis skipped by request.
 Leave Link  607 at Wed Aug  6 09:14:08 2014, MaxMem=   33554432 cpu:       0.8
 (Enter /apps/gaussian/g09_C01.binary_dist/em64t/g09/l701.exe)
 Compute integral first derivatives.
 ... and contract with generalized density number  0.
 Leave Link  701 at Wed Aug  6 09:14:09 2014, MaxMem=   33554432 cpu:       0.6
 (Enter /apps/gaussian/g09_C01.binary_dist/em64t/g09/l702.exe)
 L702 exits ... SP integral derivatives will be done elsewhere.
 Leave Link  702 at Wed Aug  6 09:14:09 2014, MaxMem=   33554432 cpu:       0.1
 (Enter /apps/gaussian/g09_C01.binary_dist/em64t/g09/l703.exe)
 Compute integral first derivatives, UseDBF=F ICtDFT=           0.
 Integral derivatives from FoFDir, PRISM(SPDF).
 Calling FoFJK, ICntrl=      2127 FMM=F ISym2X=0 I1Cent= 0 IOpClX= 0 NMat=1 NMatS=1 NMatT=0.
 FoFCou: FMM=F IPFlag=           0 FMFlag=      100000 FMFlg1=         800
         NFxFlg=           0 DoJE=F BraDBF=F KetDBF=F FulRan=T
         Omega=  0.000000  0.000000  1.000000  0.000000  0.000000 ICntrl=    2127 IOpCl=  0
         NMat0=    1 NMatS0=    1 NMatT0=    0 NMatD0=    1 NMtDS0=    0 NMtDT0=    0
         I1Cent=           0 NGrid=           0.
 Symmetry not used in FoFCou.
 Leave Link  703 at Wed Aug  6 09:14:12 2014, MaxMem=   33554432 cpu:      11.6
 (Enter /apps/gaussian/g09_C01.binary_dist/em64t/g09/l716.exe)
 Dipole        =-8.57329237D-01 1.36523400D+00 6.04030960D-04
 -------------------------------------------------------------------
 Center     Atomic                   Forces (Hartrees/Bohr)
 Number     Number              X              Y              Z
 -------------------------------------------------------------------
      1        6           0.050281714   -0.021056541   -0.000013912
      2        6           0.032265142    0.047796307   -0.000025956
      3        8           0.021876000    0.003474966    0.000008075
      4        6          -0.009554744    0.001908101    0.000006213
      5        1          -0.000641537    0.000458762   -0.000000423
      6        7           0.003592392   -0.008631264    0.000005482
      7        6           0.000152228   -0.001478204   -0.000001645
      8        1           0.000236779    0.000106326    0.000049002
      9        1           0.000236276    0.000105641   -0.000048901
     10        1           0.000102044   -0.000729832    0.000000099
     11        1           0.001087847   -0.008379925   -0.000002676
     12        7          -0.041033159   -0.004558302    0.000003679
     13        6          -0.064074619    0.000945085    0.000024164
     14        1           0.005473637   -0.009961122   -0.000003201
 -------------------------------------------------------------------
 Cartesian Forces:  Max     0.064074619 RMS     0.017583259
 Leave Link  716 at Wed Aug  6 09:14:12 2014, MaxMem=   33554432 cpu:       0.1
 (Enter /apps/gaussian/g09_C01.binary_dist/em64t/g09/l103.exe)

 GradGradGradGradGradGradGradGradGradGradGradGradGradGradGradGradGradGrad
 Berny optimization.
 Internal  Forces:  Max     0.057534119 RMS     0.012402199
 Search for a local minimum.
 Step number   1 out of a maximum of   72
 All quantities printed in internal units (Hartrees-Bohrs-Radians)
 RMS Force = .12402D-01 SwitMx=.10000D-02 MixMth= 1
 Mixed Optimization -- RFO/linear search
 Second derivative matrix not updated -- first step.
 ITU=  0
     Eigenvalues ---    0.00869   0.01444   0.01640   0.01844   0.02029
     Eigenvalues ---    0.02219   0.02424   0.02462   0.02526   0.07544
     Eigenvalues ---    0.07609   0.16000   0.16000   0.16000   0.16000
     Eigenvalues ---    0.16000   0.16000   0.22365   0.23262   0.24583
     Eigenvalues ---    0.25000   0.25000   0.34582   0.34583   0.34678
     Eigenvalues ---    0.35301   0.35793   0.36694   0.37230   0.38727
     Eigenvalues ---    0.41763   0.45836   0.50348   0.52674   0.62953
     Eigenvalues ---    0.95465
 RFO step:  Lambda=-2.54514780D-02 EMin= 8.69436446D-03
 Linear search not attempted -- first point.
 Iteration  1 RMS(Cart)=  0.04313901 RMS(Int)=  0.00131670
 Iteration  2 RMS(Cart)=  0.00155659 RMS(Int)=  0.00013587
 Iteration  3 RMS(Cart)=  0.00000206 RMS(Int)=  0.00013587
 Iteration  4 RMS(Cart)=  0.00000000 RMS(Int)=  0.00013587
 Variable       Old X    -DE/DX   Delta X   Delta X   Delta X     New X
                                 (Linear)    (Quad)   (Total)
    R1        2.58361   0.00431   0.00000   0.00491   0.00507   2.58868
    R2        2.04407  -0.00091   0.00000  -0.00236  -0.00236   2.04171
    R3        2.68311  -0.04334   0.00000  -0.10050  -0.10059   2.58252
    R4        2.30512   0.02206   0.00000   0.02250   0.02250   2.32762
    R5        2.71270  -0.01345   0.00000  -0.02693  -0.02683   2.68587
    R6        2.61665   0.05753   0.00000   0.11646   0.11628   2.73294
    R7        2.05189   0.00070   0.00000   0.00185   0.00185   2.05373
    R8        2.55884   0.00501   0.00000   0.00937   0.00962   2.56846
    R9        2.76309  -0.00131   0.00000  -0.00334  -0.00334   2.75976
   R10        2.06358   0.00018   0.00000   0.00050   0.00050   2.06408
   R11        2.06358   0.00018   0.00000   0.00049   0.00049   2.06408
   R12        2.06200  -0.00064   0.00000  -0.00171  -0.00171   2.06030
   R13        2.47384  -0.00582   0.00000  -0.00919  -0.00944   2.46440
   R14        2.02201   0.01136   0.00000   0.02857   0.02857   2.05058
    A1        2.12126  -0.00363   0.00000   0.00554   0.00550   2.12676
    A2        2.02742   0.02442   0.00000   0.08147   0.08156   2.10898
    A3        2.13450  -0.02079   0.00000  -0.08701  -0.08705   2.04744
    A4        2.06525   0.00862   0.00000   0.02591   0.02594   2.09119
    A5        2.17776   0.01330   0.00000   0.04291   0.04293   2.22070
    A6        2.04017  -0.02192   0.00000  -0.06882  -0.06887   1.97130
    A7        2.14971  -0.00224   0.00000  -0.00527  -0.00548   2.14423
    A8        2.10279   0.00373   0.00000   0.00648   0.00692   2.10971
    A9        2.03068  -0.00149   0.00000  -0.00122  -0.00143   2.02925
   A10        2.12776  -0.00492   0.00000  -0.01268  -0.01230   2.11545
   A11        2.02472   0.00063   0.00000  -0.00031  -0.00050   2.02423
   A12        2.13070   0.00429   0.00000   0.01299   0.01280   2.14351
   A13        1.91511   0.00030   0.00000   0.00167   0.00167   1.91678
   A14        1.91512   0.00030   0.00000   0.00166   0.00166   1.91678
   A15        1.90623  -0.00064   0.00000  -0.00356  -0.00356   1.90268
   A16        1.87967  -0.00022   0.00000  -0.00090  -0.00090   1.87877
   A17        1.92381   0.00014   0.00000   0.00061   0.00061   1.92441
   A18        1.92380   0.00014   0.00000   0.00061   0.00061   1.92441
   A19        2.18263  -0.02632   0.00000  -0.11092  -0.11139   2.07124
   A20        2.08560   0.02503   0.00000   0.10447   0.10409   2.18969
   A21        2.09879  -0.01252   0.00000  -0.05227  -0.05208   2.04671
   A22        2.09879  -0.01251   0.00000  -0.05219  -0.05200   2.04679
    D1       -0.00001   0.00000   0.00000   0.00000   0.00000  -0.00001
    D2        3.14157   0.00000   0.00000   0.00002   0.00002  -3.14159
    D3        3.14157   0.00000   0.00000   0.00002   0.00002  -3.14159
    D4       -0.00003   0.00000   0.00000   0.00004   0.00004   0.00001
    D5        0.00001   0.00000   0.00000  -0.00001  -0.00001  -0.00001
    D6        3.14159   0.00000   0.00000   0.00001   0.00001  -3.14159
    D7        3.14141   0.00001   0.00000   0.00016   0.00016   3.14157
    D8       -0.00017   0.00001   0.00000   0.00017   0.00017   0.00000
    D9        0.00006   0.00000   0.00000  -0.00010  -0.00009  -0.00003
   D10       -3.14152   0.00000   0.00000  -0.00008  -0.00008   3.14158
   D11       -3.14142  -0.00001   0.00000  -0.00015  -0.00015  -3.14157
   D12        0.00018  -0.00001   0.00000  -0.00015  -0.00015   0.00002
   D13       -0.00008   0.00000   0.00000   0.00012   0.00012   0.00004
   D14        3.14151   0.00000   0.00000   0.00011   0.00011  -3.14156
   D15       -0.00001   0.00000   0.00000   0.00001   0.00001   0.00001
   D16        3.14158   0.00000   0.00000   0.00000   0.00000   3.14158
   D17        3.14158   0.00000   0.00000   0.00003   0.00003  -3.14157
   D18       -0.00002   0.00000   0.00000   0.00002   0.00002   0.00000
   D19       -1.03093  -0.00005   0.00000  -0.00045  -0.00045  -1.03139
   D20        1.03105   0.00005   0.00000   0.00044   0.00044   1.03149
   D21       -3.14153   0.00000   0.00000   0.00000   0.00000  -3.14154
   D22        2.11067  -0.00005   0.00000  -0.00044  -0.00044   2.11023
   D23       -2.11053   0.00005   0.00000   0.00045   0.00046  -2.11008
   D24        0.00007   0.00000   0.00000   0.00001   0.00001   0.00007
   D25        0.00005   0.00000   0.00000  -0.00007  -0.00007  -0.00002
   D26       -3.14154   0.00000   0.00000  -0.00006  -0.00006   3.14158
         Item               Value     Threshold  Converged?
 Maximum Force            0.057534     0.000450     NO 
 RMS     Force            0.012402     0.000300     NO 
 Maximum Displacement     0.143239     0.001800     NO 
 RMS     Displacement     0.043247     0.001200     NO 
 Predicted change in Energy=-1.369898D-02
 GradGradGradGradGradGradGradGradGradGradGradGradGradGradGradGradGradGrad

 Leave Link  103 at Wed Aug  6 09:14:12 2014, MaxMem=   33554432 cpu:       0.1
 (Enter /apps/gaussian/g09_C01.binary_dist/em64t/g09/l202.exe)
                          Input orientation:                          
 ---------------------------------------------------------------------
 Center     Atomic      Atomic             Coordinates (Angstroms)
 Number     Number       Type             X           Y           Z
 ---------------------------------------------------------------------
      1          6           0       -3.111086    1.768191    0.000626
      2          6           0       -0.312357    1.798165    0.000035
      3          8           0        0.917875    1.858792   -0.000231
      4          6           0       -2.437643    2.961097    0.000776
      5          1           0       -2.942800    3.923347    0.001108
      6          7           0       -1.078899    2.995040    0.000499
      7          6           0       -0.318391    4.241794    0.000626
      8          1           0        0.325265    4.282959    0.882130
      9          1           0        0.324785    4.283437   -0.881206
     10          1           0       -1.013379    5.081833    0.001042
     11          1           0       -4.190557    1.722800    0.000840
     12          7           0       -2.433619    0.581322    0.000208
     13          6           0       -1.129733    0.605096   -0.000055
     14          1           0       -0.615006   -0.350174   -0.000373
 ---------------------------------------------------------------------
                    Distance matrix (angstroms):
                    1          2          3          4          5
     1  C    0.000000
     2  C    2.798889   0.000000
     3  O    4.029979   1.231725   0.000000
     4  C    1.369872   2.422654   3.531937   0.000000
     5  H    2.161717   3.381661   4.378036   1.086789   0.000000
     6  N    2.373803   1.421301   2.297426   1.359168   2.082278
     7  C    3.730664   2.443637   2.684596   2.476170   2.643659
     8  H    4.348519   2.712722   2.646948   3.187125   3.403788
     9  H    4.348482   2.712769   2.647031   3.187081   3.403712
    10  H    3.921810   3.357664   3.757357   2.554613   2.250501
    11  H    1.080425   3.878932   5.110241   2.146179   2.529685
    12  N    1.366609   2.445498   3.586703   2.379779   3.380592
    13  C    2.297509   1.446207   2.400927   2.694693   3.781270
    14  H    3.273818   2.169552   2.688728   3.779752   4.866376
                    6          7          8          9         10
     6  N    0.000000
     7  C    1.460400   0.000000
     8  H    2.099449   1.092262   0.000000
     9  H    2.099452   1.092263   1.763336   0.000000
    10  H    2.087821   1.090263   1.790665   1.790665   0.000000
    11  H    3.361697   4.619416   5.265334   5.265280   4.623587
    12  N    2.767906   4.227677   4.700144   4.700143   4.719288
    13  C    2.390484   3.726104   4.052400   4.052436   4.478248
    14  H    3.377226   4.601539   4.809246   4.809306   5.446596
                   11         12         13         14
    11  H    0.000000
    12  N    2.095186   0.000000
    13  C    3.258513   1.304103   0.000000
    14  H    4.133012   2.043291   1.085120   0.000000
 Symmetry turned off by external request.
 Stoichiometry    C5H6N2O
 Framework group  C1[X(C5H6N2O)]
 Deg. of freedom    36
 Full point group                 C1      NOp   1
 Rotational constants (GHZ):      3.5704160      2.3121130      1.4156615
 Leave Link  202 at Wed Aug  6 09:14:12 2014, MaxMem=   33554432 cpu:       0.0
 (Enter /apps/gaussian/g09_C01.binary_dist/em64t/g09/l301.exe)
 Standard basis: 6-31G(d,p) (6D, 7F)
 Ernie: Thresh=  0.10000D-02 Tol=  0.10000D-05 Strict=F.
 Integral buffers will be    131072 words long.
 Raffenetti 2 integral format.
 Two-electron integral symmetry is turned off.
   150 basis functions,   266 primitive gaussians,   150 cartesian basis functions
    29 alpha electrons       29 beta electrons
       nuclear repulsion energy       357.8453686899 Hartrees.
 IExCor=  402 DFT=T Ex+Corr=B3LYP ExCW=0 ScaHFX=  0.200000
 ScaDFX=  0.800000  0.720000  1.000000  0.810000 ScalE2=  1.000000  1.000000
 IRadAn=      0 IRanWt=     -1 IRanGd=            0 ICorTp=0
 NAtoms=   14 NActive=   14 NUniq=   14 SFac= 1.00D+00 NAtFMM=   60 NAOKFM=F Big=F
 Leave Link  301 at Wed Aug  6 09:14:12 2014, MaxMem=   33554432 cpu:       0.2
 (Enter /apps/gaussian/g09_C01.binary_dist/em64t/g09/l302.exe)
 NPDir=0 NMtPBC=     1 NCelOv=     1 NCel=       1 NClECP=     1 NCelD=      1
         NCelK=      1 NCelE2=     1 NClLst=     1 CellRange=     0.0.
 One-electron integrals computed using PRISM.
 NBasis=   150 RedAO= T  NBF=   150
 NBsUse=   150 1.00D-06 NBFU=   150
 Precomputing XC quadrature grid using
 IXCGrd= 2 IRadAn=           0 IRanWt=          -1 IRanGd=           0 AccXCQ= 0.00D+00.
 NRdTot=     871 NPtTot=      110602 NUsed=      116894 NTot=      116926
 NSgBfM=   150   150   150   150   150 NAtAll=    14    14.
 Leave Link  302 at Wed Aug  6 09:14:12 2014, MaxMem=   33554432 cpu:       0.8
 (Enter /apps/gaussian/g09_C01.binary_dist/em64t/g09/l303.exe)
 DipDrv:  MaxL=1.
 Leave Link  303 at Wed Aug  6 09:14:12 2014, MaxMem=   33554432 cpu:       0.1
 (Enter /apps/gaussian/g09_C01.binary_dist/em64t/g09/l401.exe)
 Initial guess read from the read-write file.
 B after Tr=     0.000000    0.000000    0.000000
         Rot=    1.000000    0.000000    0.000000    0.000000 Ang=   0.00 deg.
 Guess basis will be translated and rotated to current coordinates.
 Generating alternative initial guess.
 Harris functional with IExCor=  402 diagonalized for initial guess.
 ExpMin= 1.61D-01 ExpMax= 5.48D+03 ExpMxC= 8.25D+02 IAcc=1 IRadAn=         1 AccDes= 0.00D+00
 HarFok:  IExCor=  402 AccDes= 0.00D+00 IRadAn=         1 IDoV= 1
 ScaDFX=  1.000000  1.000000  1.000000  1.000000
 FoFCou: FMM=F IPFlag=           0 FMFlag=      100000 FMFlg1=           0
         NFxFlg=           0 DoJE=T BraDBF=F KetDBF=T FulRan=T
         Omega=  0.000000  0.000000  1.000000  0.000000  0.000000 ICntrl=     500 IOpCl=  0
         NMat0=    1 NMatS0=    1 NMatT0=    0 NMatD0=    1 NMtDS0=    0 NMtDT0=    0
         I1Cent=           4 NGrid=           0.
 Symmetry not used in FoFCou.
 Harris En= -378.845331495636    
 Leave Link  401 at Wed Aug  6 09:14:13 2014, MaxMem=   33554432 cpu:       1.7
 (Enter /apps/gaussian/g09_C01.binary_dist/em64t/g09/l502.exe)
 Closed shell SCF:
 Requested convergence on RMS density matrix=1.00D-08 within 128 cycles.
 Requested convergence on MAX density matrix=1.00D-06.
 Requested convergence on             energy=1.00D-06.
 No special actions if energy rises.
 Using DIIS extrapolation, IDIIS=  1040.
 Two-electron integral symmetry not used.
       116755 words used for storage of precomputed grid.
 IEnd=      204229 IEndB=      204229 NGot=    33554432 MDV=    33389494
 LenX=    33389494 LenY=    33366553
 Fock matrices will be formed incrementally for  20 cycles.
 Integral accuracy reduced to 1.0D-05 until final iterations.

 Cycle   1  Pass 0  IDiag  1:
 FoFCou: FMM=F IPFlag=           0 FMFlag=      100000 FMFlg1=           0
         NFxFlg=           0 DoJE=F BraDBF=F KetDBF=F FulRan=T
         Omega=  0.000000  0.000000  1.000000  0.000000  0.000000 ICntrl=       0 IOpCl=  0
         NMat0=    1 NMatS0=    1 NMatT0=    0 NMatD0=    1 NMtDS0=    0 NMtDT0=    0
         I1Cent=           0 NGrid=           0.
 Symmetry not used in FoFCou.
 E= -378.864359859103    
 DIIS: error= 2.91D-03 at cycle   1 NSaved=   1.
 NSaved= 1 IEnMin= 1 EnMin= -378.864359859103     IErMin= 1 ErrMin= 2.91D-03
 ErrMax= 2.91D-03 EMaxC= 1.00D-01 BMatC= 3.13D-03 BMatP= 3.13D-03
 IDIUse=3 WtCom= 9.71D-01 WtEn= 2.91D-02
 Coeff-Com:  0.100D+01
 Coeff-En:   0.100D+01
 Coeff:      0.100D+01
 Gap=     0.169 Goal=   None    Shift=    0.000
 GapD=    0.169 DampG=1.000 DampE=1.000 DampFc=1.0000 IDamp=-1.
 RMSDP=9.33D-04 MaxDP=1.83D-02              OVMax= 2.27D-02

 Cycle   2  Pass 0  IDiag  1:
 RMSU=  6.60D-04    CP:  9.99D-01
 E= -378.868290162327     Delta-E=       -0.003930303224 Rises=F Damp=F
 DIIS: error= 2.85D-03 at cycle   2 NSaved=   2.
 NSaved= 2 IEnMin= 2 EnMin= -378.868290162327     IErMin= 2 ErrMin= 2.85D-03
 ErrMax= 2.85D-03 EMaxC= 1.00D-01 BMatC= 1.05D-03 BMatP= 3.13D-03
 IDIUse=3 WtCom= 9.72D-01 WtEn= 2.85D-02
 Coeff-Com:  0.293D+00 0.707D+00
 Coeff-En:   0.000D+00 0.100D+01
 Coeff:      0.285D+00 0.715D+00
 Gap=     0.168 Goal=   None    Shift=    0.000
 RMSDP=3.71D-04 MaxDP=1.35D-02 DE=-3.93D-03 OVMax= 2.05D-02

 Cycle   3  Pass 0  IDiag  1:
 RMSU=  2.60D-04    CP:  9.99D-01  9.49D-01
 E= -378.868006675087     Delta-E=        0.000283487240 Rises=F Damp=F
 DIIS: error= 3.24D-03 at cycle   3 NSaved=   3.
 NSaved= 3 IEnMin= 2 EnMin= -378.868290162327     IErMin= 2 ErrMin= 2.85D-03
 ErrMax= 3.24D-03 EMaxC= 1.00D-01 BMatC= 1.29D-03 BMatP= 1.05D-03
 IDIUse=3 WtCom= 1.49D-01 WtEn= 8.51D-01
 Coeff-Com: -0.167D-01 0.531D+00 0.486D+00
 Coeff-En:   0.000D+00 0.551D+00 0.449D+00
 Coeff:     -0.249D-02 0.548D+00 0.454D+00
 Gap=     0.168 Goal=   None    Shift=    0.000
 RMSDP=2.12D-04 MaxDP=7.24D-03 DE= 2.83D-04 OVMax= 1.20D-02

 Cycle   4  Pass 0  IDiag  1:
 RMSU=  4.26D-05    CP:  9.99D-01  1.00D+00  4.64D-01
 E= -378.869208385602     Delta-E=       -0.001201710515 Rises=F Damp=F
 DIIS: error= 2.51D-04 at cycle   4 NSaved=   4.
 NSaved= 4 IEnMin= 4 EnMin= -378.869208385602     IErMin= 4 ErrMin= 2.51D-04
 ErrMax= 2.51D-04 EMaxC= 1.00D-01 BMatC= 1.13D-05 BMatP= 1.05D-03
 IDIUse=3 WtCom= 9.97D-01 WtEn= 2.51D-03
 Coeff-Com: -0.131D-01 0.237D+00 0.203D+00 0.572D+00
 Coeff-En:   0.000D+00 0.000D+00 0.000D+00 0.100D+01
 Coeff:     -0.130D-01 0.237D+00 0.203D+00 0.573D+00
 Gap=     0.168 Goal=   None    Shift=    0.000
 RMSDP=3.36D-05 MaxDP=8.55D-04 DE=-1.20D-03 OVMax= 1.91D-03

 Cycle   5  Pass 0  IDiag  1:
 RMSU=  1.93D-05    CP:  9.99D-01  1.01D+00  4.61D-01  6.81D-01
 E= -378.869215945477     Delta-E=       -0.000007559875 Rises=F Damp=F
 DIIS: error= 1.50D-04 at cycle   5 NSaved=   5.
 NSaved= 5 IEnMin= 5 EnMin= -378.869215945477     IErMin= 5 ErrMin= 1.50D-04
 ErrMax= 1.50D-04 EMaxC= 1.00D-01 BMatC= 4.11D-06 BMatP= 1.13D-05
 IDIUse=3 WtCom= 9.99D-01 WtEn= 1.50D-03
 Coeff-Com: -0.630D-02 0.637D-01 0.564D-01 0.371D+00 0.515D+00
 Coeff-En:   0.000D+00 0.000D+00 0.000D+00 0.259D+00 0.741D+00
 Coeff:     -0.630D-02 0.637D-01 0.564D-01 0.371D+00 0.515D+00
 Gap=     0.168 Goal=   None    Shift=    0.000
 RMSDP=1.45D-05 MaxDP=4.77D-04 DE=-7.56D-06 OVMax= 7.38D-04

 Cycle   6  Pass 0  IDiag  1:
 RMSU=  5.38D-06    CP:  9.99D-01  1.01D+00  4.63D-01  7.77D-01  6.00D-01
 E= -378.869219213959     Delta-E=       -0.000003268483 Rises=F Damp=F
 DIIS: error= 3.80D-05 at cycle   6 NSaved=   6.
 NSaved= 6 IEnMin= 6 EnMin= -378.869219213959     IErMin= 6 ErrMin= 3.80D-05
 ErrMax= 3.80D-05 EMaxC= 1.00D-01 BMatC= 2.83D-07 BMatP= 4.11D-06
 IDIUse=1 WtCom= 1.00D+00 WtEn= 0.00D+00
 Coeff-Com: -0.248D-02 0.188D-01 0.187D-01 0.170D+00 0.287D+00 0.508D+00
 Coeff:     -0.248D-02 0.188D-01 0.187D-01 0.170D+00 0.287D+00 0.508D+00
 Gap=     0.168 Goal=   None    Shift=    0.000
 RMSDP=4.20D-06 MaxDP=1.51D-04 DE=-3.27D-06 OVMax= 2.32D-04

 Initial convergence to 1.0D-05 achieved.  Increase integral accuracy.
 Cycle   7  Pass 1  IDiag  1:
 E= -378.869187590559     Delta-E=        0.000031623400 Rises=F Damp=F
 DIIS: error= 2.36D-05 at cycle   1 NSaved=   1.
 NSaved= 1 IEnMin= 1 EnMin= -378.869187590559     IErMin= 1 ErrMin= 2.36D-05
 ErrMax= 2.36D-05 EMaxC= 1.00D-01 BMatC= 1.05D-07 BMatP= 1.05D-07
 IDIUse=1 WtCom= 1.00D+00 WtEn= 0.00D+00
 Coeff-Com:  0.100D+01
 Coeff:      0.100D+01
 Gap=     0.168 Goal=   None    Shift=    0.000
 RMSDP=4.20D-06 MaxDP=1.51D-04 DE= 3.16D-05 OVMax= 1.73D-04

 Cycle   8  Pass 1  IDiag  1:
 RMSU=  3.84D-06    CP:  1.00D+00
 E= -378.869187519799     Delta-E=        0.000000070760 Rises=F Damp=F
 DIIS: error= 4.50D-05 at cycle   2 NSaved=   2.
 NSaved= 2 IEnMin= 1 EnMin= -378.869187590559     IErMin= 1 ErrMin= 2.36D-05
 ErrMax= 4.50D-05 EMaxC= 1.00D-01 BMatC= 2.28D-07 BMatP= 1.05D-07
 IDIUse=1 WtCom= 1.00D+00 WtEn= 0.00D+00
 Coeff-Com:  0.614D+00 0.386D+00
 Coeff:      0.614D+00 0.386D+00
 Gap=     0.168 Goal=   None    Shift=    0.000
 RMSDP=3.65D-06 MaxDP=1.32D-04 DE= 7.08D-08 OVMax= 1.88D-04

 Cycle   9  Pass 1  IDiag  1:
 RMSU=  2.18D-06    CP:  1.00D+00  6.48D-01
 E= -378.869187686383     Delta-E=       -0.000000166584 Rises=F Damp=F
 DIIS: error= 1.33D-05 at cycle   3 NSaved=   3.
 NSaved= 3 IEnMin= 3 EnMin= -378.869187686383     IErMin= 3 ErrMin= 1.33D-05
 ErrMax= 1.33D-05 EMaxC= 1.00D-01 BMatC= 1.99D-08 BMatP= 1.05D-07
 IDIUse=1 WtCom= 1.00D+00 WtEn= 0.00D+00
 Coeff-Com:  0.451D-01 0.226D+00 0.729D+00
 Coeff:      0.451D-01 0.226D+00 0.729D+00
 Gap=     0.168 Goal=   None    Shift=    0.000
 RMSDP=1.16D-06 MaxDP=3.98D-05 DE=-1.67D-07 OVMax= 7.77D-05

 Cycle  10  Pass 1  IDiag  1:
 RMSU=  4.93D-07    CP:  1.00D+00  7.50D-01  7.59D-01
 E= -378.869187698075     Delta-E=       -0.000000011692 Rises=F Damp=F
 DIIS: error= 4.20D-06 at cycle   4 NSaved=   4.
[...]
    97    H    8  S      Ryd( 2S)     0.00039       0.46028
    98    H    8  px     Ryd( 2p)     0.00010       2.38204
    99    H    8  py     Ryd( 2p)     0.00003       2.12033
   100    H    8  pz     Ryd( 2p)     0.00013       2.58995

   101    H    9  S      Val( 1S)     0.35675      -0.08846
   102    H    9  S      Ryd( 2S)     0.00039       0.46028
   103    H    9  px     Ryd( 2p)     0.00010       2.38172
   104    H    9  py     Ryd( 2p)     0.00003       2.12038
   105    H    9  pz     Ryd( 2p)     0.00013       2.59022

   106    H   10  S      Val( 1S)     0.36556      -0.10325
   107    H   10  S      Ryd( 2S)     0.00024       0.47313
   108    H   10  px     Ryd( 2p)     0.00006       2.38485
   109    H   10  py     Ryd( 2p)     0.00016       2.53447
   110    H   10  pz     Ryd( 2p)     0.00003       2.11369

   111    H   11  S      Val( 1S)     0.34915      -0.09074
   112    H   11  S      Ryd( 2S)     0.00038       0.37561
   113    H   11  px     Ryd( 2p)     0.00022       2.82788
   114    H   11  py     Ryd( 2p)     0.00001       2.33070
   115    H   11  pz     Ryd( 2p)     0.00005       2.02128

   116    N   12  S      Cor( 1S)     0.99974     -14.38305
   117    N   12  S      Val( 2S)     0.69600      -0.74618
   118    N   12  S      Ryd( 3S)     0.00023       1.51227
   119    N   12  S      Ryd( 4S)     0.00000       3.78127
   120    N   12  px     Val( 2p)     0.66526      -0.39985
   121    N   12  px     Ryd( 3p)     0.00226       0.87938
   122    N   12  py     Val( 2p)     0.76682      -0.41639
   123    N   12  py     Ryd( 3p)     0.00301       0.76801
   124    N   12  pz     Val( 2p)     0.49326      -0.38612
   125    N   12  pz     Ryd( 3p)     0.00022       0.62145
   126    N   12  dxy    Ryd( 3d)     0.00167       1.86616
   127    N   12  dxz    Ryd( 3d)     0.00084       1.54620
   128    N   12  dyz    Ryd( 3d)     0.00100       1.52547
   129    N   12  dx2y2  Ryd( 3d)     0.00167       2.07975
   130    N   12  dz2    Ryd( 3d)     0.00115       1.85530

   131    C   13  S      Cor( 1S)     0.99961     -10.34031
   132    C   13  S      Val( 2S)     0.50319      -0.44736
   133    C   13  S      Ryd( 3S)     0.00147       0.80881
   134    C   13  S      Ryd( 4S)     0.00006       3.77031
   135    C   13  px     Val( 2p)     0.47465      -0.24008
   136    C   13  px     Ryd( 3p)     0.00418       0.57101
   137    C   13  py     Val( 2p)     0.58334      -0.29384
   138    C   13  py     Ryd( 3p)     0.00306       0.73210
   139    C   13  pz     Val( 2p)     0.51232      -0.36558
   140    C   13  pz     Ryd( 3p)     0.00051       0.38210
   141    C   13  dxy    Ryd( 3d)     0.00090       2.47551
   142    C   13  dxz    Ryd( 3d)     0.00037       1.90847
   143    C   13  dyz    Ryd( 3d)     0.00018       1.64201
   144    C   13  dx2y2  Ryd( 3d)     0.00039       2.31391
   145    C   13  dz2    Ryd( 3d)     0.00011       2.16820

   146    H   14  S      Val( 1S)     0.35233      -0.08353
   147    H   14  S      Ryd( 2S)     0.00060       0.40663
   148    H   14  px     Ryd( 2p)     0.00006       2.51436
   149    H   14  py     Ryd( 2p)     0.00019       2.69003
   150    H   14  pz     Ryd( 2p)     0.00004       2.03806


 Summary of Natural Population Analysis:                  
                                                          
                                       Natural Population 
                Natural  -----------------------------------------------
    Atom  No    Charge         Core      Valence    Rydberg      Total
 -----------------------------------------------------------------------
      C    1   -0.12448      0.99958     2.11415    0.01075     3.12448
      C    2    0.34089      0.99965     1.64149    0.01797     2.65911
      O    3   -0.37617      0.99991     3.36639    0.00988     4.37617
      C    4    0.01294      0.99958     1.97849    0.00899     2.98706
      H    5    0.14570      0.00000     0.35360    0.00070     0.35430
      N    6   -0.24834      0.99967     2.74302    0.00565     3.74834
      C    7   -0.24918      0.99972     2.24222    0.00724     3.24918
      H    8    0.14259      0.00000     0.35675    0.00065     0.35741
      H    9    0.14259      0.00000     0.35675    0.00065     0.35741
      H   10    0.13395      0.00000     0.36556    0.00049     0.36605
      H   11    0.15018      0.00000     0.34915    0.00067     0.34982
      N   12   -0.13312      0.99974     2.62133    0.01205     3.63312
      C   13   -0.08434      0.99961     2.07350    0.01123     3.08434
      H   14    0.14679      0.00000     0.35233    0.00088     0.35321
 =======================================================================
   * Total *    0.00000      7.99745    20.91474    0.08781    29.00000

                                 Natural Population      
 --------------------------------------------------------
   Core                       7.99745 ( 99.9682% of   8)
   Valence                   20.91474 ( 99.5940% of  21)
   Natural Minimal Basis     28.91219 ( 99.6972% of  29)
   Natural Rydberg Basis      0.08781 (  0.3028% of  29)
 --------------------------------------------------------

    Atom  No          Natural Electron Configuration
 ----------------------------------------------------------------------------
      C    1      [core]2S( 0.49)2p( 1.62)3p( 0.01)
      C    2      [core]2S( 0.40)2p( 1.24)3p( 0.01)
      O    3      [core]2S( 0.86)2p( 2.51)3d( 0.01)
      C    4      [core]2S( 0.48)2p( 1.50)3p( 0.01)
      H    5            1S( 0.35)
      N    6      [core]2S( 0.62)2p( 2.12)
      C    7      [core]2S( 0.56)2p( 1.69)
      H    8            1S( 0.36)
      H    9            1S( 0.36)
      H   10            1S( 0.37)
      H   11            1S( 0.35)
      N   12      [core]2S( 0.70)2p( 1.93)3p( 0.01)3d( 0.01)
      C   13      [core]2S( 0.50)2p( 1.57)3p( 0.01)
      H   14            1S( 0.35)


 NBO analysis skipped by request.


 ***************************************************
 *******         Beta  spin orbitals         *******
 ***************************************************


 NATURAL POPULATIONS:  Natural atomic orbital occupancies 
                                                          
   NAO  Atom  No  lang   Type(AO)    Occupancy      Energy
 ----------------------------------------------------------
     1    C    1  S      Cor( 1S)     0.99958     -10.33830
     2    C    1  S      Val( 2S)     0.47989      -0.42099
     3    C    1  S      Ryd( 3S)     0.00061       0.86054
     4    C    1  S      Ryd( 4S)     0.00004       3.71996
     5    C    1  px     Val( 2p)     0.59183      -0.29312
     6    C    1  px     Ryd( 3p)     0.00308       0.81422
     7    C    1  py     Val( 2p)     0.45480      -0.24274
     8    C    1  py     Ryd( 3p)     0.00436       0.41559
     9    C    1  pz     Val( 2p)     0.25526      -0.31206
    10    C    1  pz     Ryd( 3p)     0.00003       0.38656
    11    C    1  dxy    Ryd( 3d)     0.00054       2.28157
    12    C    1  dxz    Ryd( 3d)     0.00027       1.70658
    13    C    1  dyz    Ryd( 3d)     0.00029       1.83850
    14    C    1  dx2y2  Ryd( 3d)     0.00067       2.45995
    15    C    1  dz2    Ryd( 3d)     0.00027       2.19680

    16    C    2  S      Cor( 1S)     0.99965     -10.40579
    17    C    2  S      Val( 2S)     0.40830      -0.39052
    18    C    2  S      Ryd( 3S)     0.00257       0.95730
    19    C    2  S      Ryd( 4S)     0.00024       3.30552
    20    C    2  px     Val( 2p)     0.40681      -0.23732
    21    C    2  px     Ryd( 3p)     0.00849       0.65325
    22    C    2  py     Val( 2p)     0.46003      -0.26840
    23    C    2  py     Ryd( 3p)     0.00275       0.64093
    24    C    2  pz     Val( 2p)     0.47684      -0.36572
    25    C    2  pz     Ryd( 3p)     0.00074       0.39517
    26    C    2  dxy    Ryd( 3d)     0.00180       2.43121
    27    C    2  dxz    Ryd( 3d)     0.00036       2.00300
    28    C    2  dyz    Ryd( 3d)     0.00027       1.66642
    29    C    2  dx2y2  Ryd( 3d)     0.00059       2.33380
    30    C    2  dz2    Ryd( 3d)     0.00016       2.16491

    31    O    3  S      Cor( 1S)     0.99991     -19.11300
    32    O    3  S      Val( 2S)     0.85276      -1.09926
    33    O    3  S      Ryd( 3S)     0.00026       2.06480
    34    O    3  S      Ryd( 4S)     0.00004       3.30205
    35    O    3  px     Val( 2p)     0.77423      -0.50561
    36    O    3  px     Ryd( 3p)     0.00013       1.10212
    37    O    3  py     Val( 2p)     0.92661      -0.47124
    38    O    3  py     Ryd( 3p)     0.00103       0.99000
    39    O    3  pz     Val( 2p)     0.43380      -0.40693
    40    O    3  pz     Ryd( 3p)     0.00014       0.83128
    41    O    3  dxy    Ryd( 3d)     0.00251       1.83403
    42    O    3  dxz    Ryd( 3d)     0.00168       1.65434
    43    O    3  dyz    Ryd( 3d)     0.00001       1.59847
    44    O    3  dx2y2  Ryd( 3d)     0.00214       2.14974
    45    O    3  dz2    Ryd( 3d)     0.00067       1.83537

    46    C    4  S      Cor( 1S)     0.99957     -10.35497
    47    C    4  S      Val( 2S)     0.48380      -0.44282
    48    C    4  S      Ryd( 3S)     0.00084       0.71690
    49    C    4  S      Ryd( 4S)     0.00005       3.80309
    50    C    4  px     Val( 2p)     0.44230      -0.26276
    51    C    4  px     Ryd( 3p)     0.00203       0.49622
    52    C    4  py     Val( 2p)     0.60669      -0.32344
    53    C    4  py     Ryd( 3p)     0.00305       0.76832
    54    C    4  pz     Val( 2p)     0.40057      -0.36118
    55    C    4  pz     Ryd( 3p)     0.00042       0.36196
    56    C    4  dxy    Ryd( 3d)     0.00040       2.33744
    57    C    4  dxz    Ryd( 3d)     0.00043       1.70119
    58    C    4  dyz    Ryd( 3d)     0.00017       1.65560
    59    C    4  dx2y2  Ryd( 3d)     0.00064       2.22483
    60    C    4  dz2    Ryd( 3d)     0.00023       2.11543

    61    H    5  S      Val( 1S)     0.35489      -0.12349
    62    H    5  S      Ryd( 2S)     0.00043       0.37127
    63    H    5  px     Ryd( 2p)     0.00006       2.42237
    64    H    5  py     Ryd( 2p)     0.00018       2.68398
    65    H    5  pz     Ryd( 2p)     0.00003       1.99530

    66    N    6  S      Cor( 1S)     0.99966     -14.48586
    67    N    6  S      Val( 2S)     0.61480      -0.77732
    68    N    6  S      Ryd( 3S)     0.00066       1.30722
    69    N    6  S      Ryd( 4S)     0.00001       3.75875
    70    N    6  px     Val( 2p)     0.66125      -0.50763
    71    N    6  px     Ryd( 3p)     0.00077       1.04254
    72    N    6  py     Val( 2p)     0.67235      -0.50595
    73    N    6  py     Ryd( 3p)     0.00149       1.15573
    74    N    6  pz     Val( 2p)     0.60138      -0.47863
    75    N    6  pz     Ryd( 3p)     0.00062       0.63328
    76    N    6  dxy    Ryd( 3d)     0.00036       2.29600
    77    N    6  dxz    Ryd( 3d)     0.00051       1.67429
    78    N    6  dyz    Ryd( 3d)     0.00026       1.64804
    79    N    6  dx2y2  Ryd( 3d)     0.00041       2.28387
    80    N    6  dz2    Ryd( 3d)     0.00030       2.09688

    81    C    7  S      Cor( 1S)     0.99972     -10.30156
    82    C    7  S      Val( 2S)     0.55750      -0.47763
    83    C    7  S      Ryd( 3S)     0.00062       1.00537
    84    C    7  S      Ryd( 4S)     0.00001       4.13050
    85    C    7  px     Val( 2p)     0.58651      -0.29802
    86    C    7  px     Ryd( 3p)     0.00206       0.43560
    87    C    7  py     Val( 2p)     0.46113      -0.27493
    88    C    7  py     Ryd( 3p)     0.00195       0.42210
    89    C    7  pz     Val( 2p)     0.64088      -0.30738
    90    C    7  pz     Ryd( 3p)     0.00056       0.40454
    91    C    7  dxy    Ryd( 3d)     0.00061       2.23589
    92    C    7  dxz    Ryd( 3d)     0.00040       2.31403
    93    C    7  dyz    Ryd( 3d)     0.00014       1.79743
    94    C    7  dx2y2  Ryd( 3d)     0.00021       2.04147
    95    C    7  dz2    Ryd( 3d)     0.00043       2.17233

    96    H    8  S      Val( 1S)     0.34676      -0.08414
    97    H    8  S      Ryd( 2S)     0.00032       0.46159
    98    H    8  px     Ryd( 2p)     0.00009       2.38450
    99    H    8  py     Ryd( 2p)     0.00003       2.12281
   100    H    8  pz     Ryd( 2p)     0.00013       2.59238

   101    H    9  S      Val( 1S)     0.34676      -0.08414
   102    H    9  S      Ryd( 2S)     0.00032       0.46158
   103    H    9  px     Ryd( 2p)     0.00009       2.38418
   104    H    9  py     Ryd( 2p)     0.00003       2.12285
   105    H    9  pz     Ryd( 2p)     0.00013       2.59265

   106    H   10  S      Val( 1S)     0.36547      -0.10325
   107    H   10  S      Ryd( 2S)     0.00024       0.47316
   108    H   10  px     Ryd( 2p)     0.00006       2.38484
   109    H   10  py     Ryd( 2p)     0.00016       2.53446
   110    H   10  pz     Ryd( 2p)     0.00003       2.11376

   111    H   11  S      Val( 1S)     0.35948      -0.09403
   112    H   11  S      Ryd( 2S)     0.00039       0.37467
   113    H   11  px     Ryd( 2p)     0.00025       2.82737
   114    H   11  py     Ryd( 2p)     0.00002       2.32905
   115    H   11  pz     Ryd( 2p)     0.00001       2.02168

   116    N   12  S      Cor( 1S)     0.99974     -14.38510
   117    N   12  S      Val( 2S)     0.70016      -0.75569
   118    N   12  S      Ryd( 3S)     0.00020       1.51281
   119    N   12  S      Ryd( 4S)     0.00000       3.77775
   120    N   12  px     Val( 2p)     0.67227      -0.40394
   121    N   12  px     Ryd( 3p)     0.00221       0.87911
   122    N   12  py     Val( 2p)     0.77281      -0.42069
   123    N   12  py     Ryd( 3p)     0.00289       0.76720
   124    N   12  pz     Val( 2p)     0.58547      -0.40794
   125    N   12  pz     Ryd( 3p)     0.00008       0.61602
   126    N   12  dxy    Ryd( 3d)     0.00171       1.86550
   127    N   12  dxz    Ryd( 3d)     0.00060       1.54243
   128    N   12  dyz    Ryd( 3d)     0.00124       1.51962
   129    N   12  dx2y2  Ryd( 3d)     0.00174       2.07984
   130    N   12  dz2    Ryd( 3d)     0.00119       1.84711

   131    C   13  S      Cor( 1S)     0.99961     -10.33652
   132    C   13  S      Val( 2S)     0.49136      -0.42443
   133    C   13  S      Ryd( 3S)     0.00148       0.82060
   134    C   13  S      Ryd( 4S)     0.00006       3.78037
   135    C   13  px     Val( 2p)     0.46906      -0.23204
   136    C   13  px     Ryd( 3p)     0.00423       0.57362
   137    C   13  py     Val( 2p)     0.57693      -0.28529
   138    C   13  py     Ryd( 3p)     0.00302       0.73534
   139    C   13  pz     Val( 2p)     0.26616      -0.31105
   140    C   13  pz     Ryd( 3p)     0.00007       0.39767
   141    C   13  dxy    Ryd( 3d)     0.00089       2.47945
   142    C   13  dxz    Ryd( 3d)     0.00043       1.92755
   143    C   13  dyz    Ryd( 3d)     0.00011       1.66299
   144    C   13  dx2y2  Ryd( 3d)     0.00039       2.31772
   145    C   13  dz2    Ryd( 3d)     0.00024       2.19318

   146    H   14  S      Val( 1S)     0.36060      -0.08611
   147    H   14  S      Ryd( 2S)     0.00063       0.40589
   148    H   14  px     Ryd( 2p)     0.00007       2.51338
   149    H   14  py     Ryd( 2p)     0.00021       2.68935
   150    H   14  pz     Ryd( 2p)     0.00001       2.03834


 Summary of Natural Population Analysis:                  
                                                          
                                       Natural Population 
                Natural  -----------------------------------------------
    Atom  No    Charge         Core      Valence    Rydberg      Total
 -----------------------------------------------------------------------
      C    1    0.20848      0.99958     1.78178    0.01016     2.79152
      C    2    0.23041      0.99965     1.75197    0.01797     2.76959
      O    3    0.00407      0.99991     2.98740    0.00862     3.99593
      C    4    0.05881      0.99957     1.93335    0.00826     2.94119
      H    5    0.14441      0.00000     0.35489    0.00070     0.35559
      N    6   -0.05483      0.99966     2.54977    0.00539     3.55483
      C    7   -0.25272      0.99972     2.24602    0.00698     3.25272
      H    8    0.15267      0.00000     0.34676    0.00057     0.34733
      H    9    0.15267      0.00000     0.34676    0.00057     0.34733
      H   10    0.13404      0.00000     0.36547    0.00049     0.36596
      H   11    0.13985      0.00000     0.35948    0.00067     0.36015
      N   12   -0.24231      0.99974     2.73071    0.01186     3.74231
      C   13    0.18596      0.99961     1.80350    0.01092     2.81404
      H   14    0.13848      0.00000     0.36060    0.00092     0.36152
 =======================================================================
   * Total *    1.00000      7.99744    19.91846    0.08409    28.00000

                                 Natural Population      
 --------------------------------------------------------
   Core                       7.99744 ( 99.9681% of   8)
   Valence                   19.91846 ( 99.5923% of  20)
   Natural Minimal Basis     27.91591 ( 99.6997% of  28)
   Natural Rydberg Basis      0.08409 (  0.3003% of  28)
 --------------------------------------------------------

    Atom  No          Natural Electron Configuration
 ----------------------------------------------------------------------------
      C    1      [core]2S( 0.48)2p( 1.30)3p( 0.01)
      C    2      [core]2S( 0.41)2p( 1.34)3p( 0.01)
      O    3      [core]2S( 0.85)2p( 2.13)3d( 0.01)
      C    4      [core]2S( 0.48)2p( 1.45)3p( 0.01)
      H    5            1S( 0.35)
      N    6      [core]2S( 0.61)2p( 1.93)
      C    7      [core]2S( 0.56)2p( 1.69)
      H    8            1S( 0.35)
      H    9            1S( 0.35)
      H   10            1S( 0.37)
      H   11            1S( 0.36)
      N   12      [core]2S( 0.70)2p( 2.03)3p( 0.01)3d( 0.01)
      C   13      [core]2S( 0.49)2p( 1.31)3p( 0.01)
      H   14            1S( 0.36)


 NBO analysis skipped by request.
 Leave Link  607 at Wed Aug  6 09:16:10 2014, MaxMem=   33554432 cpu:       0.8
 (Enter /apps/gaussian/g09_C01.binary_dist/em64t/g09/l9999.exe)
 1\1\GINC-LC3N68\SP\UB3LYP\6-31G(d,p)\C5H6N2O1(1+,2)\TOMASI\06-Aug-2014
 \0\\#p ub3lyp/6-31g(d,p) nosymm pop=(npa,mk,hirshfeld) SP scf=tight ge
 om=checkpoint\\Title Card Required\\1,2\C,0,-3.1040031842,1.7706159174
 ,0.0006368112\C,0,-0.3123873311,1.8032419919,0.0000696091\O,0,0.914254
 9983,1.8382971071,-0.0002370558\C,0,-2.4387052203,2.9616279279,0.00076
 92304\H,0,-2.947741428,3.9192550294,0.0010997148\N,0,-1.0725883491,2.9
 918233317,0.0004937943\C,0,-0.3200204586,4.2450373294,0.0006255018\H,0
 ,0.322741395,4.28913866,0.8827383168\H,0,0.3222923526,4.2896033466,-0.
 8817920424\H,0,-1.017706279,5.0828493567,0.0010207667\H,0,-4.187617798
 3,1.7420026705,0.0008580371\N,0,-2.4414143239,0.5719147745,0.000216123
 3\C,0,-1.1383380988,0.5953241791,-0.0000584068\H,0,-0.5943120946,-0.34
 70317422,-0.0004154003\\Version=EM64L-G09RevC.01\HF=-378.5617116\S2=0.
 778381\S2-1=0.\S2A=0.750484\RMSD=4.760e-09\Dipole=-1.0596097,1.2675416
 ,0.0005463\Quadrupole=-1.8765683,19.2748362,-17.398268,-17.5342594,-0.
 0046043,0.0079043\PG=C01 [X(C5H6N2O1)]\\@


     ON THE SURVIVAL OF THE FITTEST -
 "STRONG REPRESENTATIVES FROM EACH PAST ERA THRIVE TODAY,
 SUCH AS PROGRAMMING IN THE THIRTY YEAR OLD LANGUAGE KNOWN
 AS FORTRAN, AND EVEN IN THE ANCIENT SCRIPT KNOWN AS DIRECT
 MACHINE CODE. SOME PEOPLE MIGHT LOOK ON SUCH RELICS AS LIVING
 FOSSILS; OTHERS WOULD POINT OUT THAT EVEN A VERY OLD SPECIES
 MIGHT STILL BE FILLING A PARTICULAR ECOLOGICAL NICHE."
     -- ALAN KAY, SCI.AM. SEPTEMBER 1984
 Job cpu time:  0 days  0 hours  1 minutes 53.3 seconds.
 File lengths (MBytes):  RWF=     24 Int=      0 D2E=      0 Chk=      4 Scr=      1
 Normal termination of Gaussian 09 at Wed Aug  6 09:16:10 2014.
