 Entering Gaussian System, Link 0=g09
 Initial command:
 /apps/gaussian/g09_C01.binary_dist/em64t/g09/l1.exe /tmp/knzd043/Gau-3169.inp -scrdir=/tmp/knzd043/
 Entering Link 1 = /apps/gaussian/g09_C01.binary_dist/em64t/g09/l1.exe PID=      3170.
  
 Copyright (c) 1988,1990,1992,1993,1995,1998,2003,2009,2011,
            Gaussian, Inc.  All Rights Reserved.
  
 This is part of the Gaussian(R) 09 program.  It is based on
 the Gaussian(R) 03 system (copyright 2003, Gaussian, Inc.),
 the Gaussian(R) 98 system (copyright 1998, Gaussian, Inc.),
 the Gaussian(R) 94 system (copyright 1995, Gaussian, Inc.),
 the Gaussian 92(TM) system (copyright 1992, Gaussian, Inc.),
 the Gaussian 90(TM) system (copyright 1990, Gaussian, Inc.),
 the Gaussian 88(TM) system (copyright 1988, Gaussian, Inc.),
 the Gaussian 86(TM) system (copyright 1986, Carnegie Mellon
 University), and the Gaussian 82(TM) system (copyright 1983,
 Carnegie Mellon University). Gaussian is a federally registered
 trademark of Gaussian, Inc.
  
 This software contains proprietary and confidential information,
 including trade secrets, belonging to Gaussian, Inc.
  
 This software is provided under written license and may be
 used, copied, transmitted, or stored only in accord with that
 written license.
  
 The following legend is applicable only to US Government
 contracts under FAR:
  
                    RESTRICTED RIGHTS LEGEND
  
 Use, reproduction and disclosure by the US Government is
 subject to restrictions as set forth in subparagraphs (a)
 and (c) of the Commercial Computer Software - Restricted
 Rights clause in FAR 52.227-19.
  
 Gaussian, Inc.
 340 Quinnipiac St., Bldg. 40, Wallingford CT 06492
  
  
 ---------------------------------------------------------------
 Warning -- This program may not be used in any manner that
 competes with the business of Gaussian, Inc. or will provide
 assistance to any competitor of Gaussian, Inc.  The licensee
 of this program is prohibited from giving any competitor of
 Gaussian, Inc. access to this program.  By using this program,
 the user acknowledges that Gaussian, Inc. is engaged in the
 business of creating and licensing software in the field of
 computational chemistry and represents and warrants to the
 licensee that it is not a competitor of Gaussian, Inc. and that
 it will not use this program in any manner prohibited above.
 ---------------------------------------------------------------
  

 Cite this work as:
 Gaussian 09, Revision C.01,
 M. J. Frisch, G. W. Trucks, H. B. Schlegel, G. E. Scuseria, 
 M. A. Robb, J. R. Cheeseman, G. Scalmani, V. Barone, B. Mennucci, 
 G. A. Petersson, H. Nakatsuji, M. Caricato, X. Li, H. P. Hratchian, 
 A. F. Izmaylov, J. Bloino, G. Zheng, J. L. Sonnenberg, M. Hada, 
 M. Ehara, K. Toyota, R. Fukuda, J. Hasegawa, M. Ishida, T. Nakajima, 
 Y. Honda, O. Kitao, H. Nakai, T. Vreven, J. A. Montgomery, Jr., 
 J. E. Peralta, F. Ogliaro, M. Bearpark, J. J. Heyd, E. Brothers, 
 K. N. Kudin, V. N. Staroverov, T. Keith, R. Kobayashi, J. Normand, 
 K. Raghavachari, A. Rendell, J. C. Burant, S. S. Iyengar, J. Tomasi, 
 M. Cossi, N. Rega, J. M. Millam, M. Klene, J. E. Knox, J. B. Cross, 
 V. Bakken, C. Adamo, J. Jaramillo, R. Gomperts, R. E. Stratmann, 
 O. Yazyev, A. J. Austin, R. Cammi, C. Pomelli, J. W. Ochterski, 
 R. L. Martin, K. Morokuma, V. G. Zakrzewski, G. A. Voth, 
 P. Salvador, J. J. Dannenberg, S. Dapprich, A. D. Daniels, 
 O. Farkas, J. B. Foresman, J. V. Ortiz, J. Cioslowski, 
 and D. J. Fox, Gaussian, Inc., Wallingford CT, 2010.
 
 ******************************************
 Gaussian 09:  EM64L-G09RevC.01 23-Sep-2011
                31-Jul-2014 
 ******************************************
 %mem=200MW
 %nproc=4
 Will use up to    4 processors via shared memory.
 %chk=Pyridine
 -----------------------------------------------------------
 #p opt b3lyp/6-31+G(d) nosymm pop=(Chelpg,MK,NPA,hirshfeld)
 -----------------------------------------------------------
 1/14=-1,18=20,19=15,26=3,38=1/1,3;
 2/9=110,12=2,15=1,17=6,18=5,40=1/2;
 3/5=1,6=6,7=11,11=2,16=1,25=1,30=1,71=1,74=-5/1,2,3;
 4//1;
 5/5=2,38=5/2;
 6/7=2,8=2,9=2,10=2,15=8,20=4,28=1,40=-1,79=1/1,2,7;
 7/30=1/1,2,3,16;
 1/14=-1,18=20,19=15/3(2);
 2/9=110,15=1/2;
 99//99;
 2/9=110,15=1/2;
 3/5=1,6=6,7=11,11=2,16=1,25=1,30=1,71=1,74=-5/1,2,3;
 4/5=5,16=3/1;
 5/5=2,38=5/2;
 7/30=1/1,2,3,16;
 1/14=-1,18=20,19=15/3(-5);
 2/9=110,15=1/2;
 6/7=2,8=2,9=2,10=2,15=8,19=2,20=4,28=1,40=-1,79=1/1,2,7;
 99/9=1/99;
 Leave Link    1 at Thu Jul 31 10:18:43 2014, MaxMem=  209715200 cpu:       0.3
 (Enter /apps/gaussian/g09_C01.binary_dist/em64t/g09/l101.exe)
 ----------------------------------------------------------------------
 3-Fluoro-4-Aminopyridine: Parent Compound Optimisation [B3LYP/6-31+G(d
 )]
 ----------------------------------------------------------------------
 Charge =  0 Multiplicity = 1
 Symbolic Z-Matrix:
 C                    -0.709     0.087    -0.062 
 N                     2.125    -0.114     0.037 
 C                     0.111     1.226    -0.037 
 C                    -0.033    -1.142    -0.035 
 C                     1.347    -1.206     0.015 
 C                     1.494     1.067     0.01 
 H                    -0.331     2.218    -0.06 
 H                     1.835    -2.179     0.04 
 H                     2.133     1.949     0.029 
 N                    -2.085     0.126    -0.16 
 H                    -2.566    -0.725     0.099 
 H                    -2.539     0.968     0.166 
 F                    -0.78     -2.276    -0.042 
 
 NAtoms=     13 NQM=        0 NQMF=       0 NMMI=     13 NMMIF=      0
                NMic=       0 NMicF=      0.
                    Isotopes and Nuclear Properties:
 (Nuclear quadrupole moments (NQMom) in fm**2, nuclear magnetic moments (NMagM)
  in nuclear magnetons)

  Atom         1           2           3           4           5           6           7           8           9          10
 IAtWgt=          12          14          12          12          12          12           1           1           1          14
 AtmWgt=  12.0000000  14.0030740  12.0000000  12.0000000  12.0000000  12.0000000   1.0078250   1.0078250   1.0078250  14.0030740
 NucSpn=           0           2           0           0           0           0           1           1           1           2
 AtZEff=   0.0000000   0.0000000   0.0000000   0.0000000   0.0000000   0.0000000   0.0000000   0.0000000   0.0000000   0.0000000
 NQMom=    0.0000000   2.0440000   0.0000000   0.0000000   0.0000000   0.0000000   0.0000000   0.0000000   0.0000000   2.0440000
 NMagM=    0.0000000   0.4037610   0.0000000   0.0000000   0.0000000   0.0000000   2.7928460   2.7928460   2.7928460   0.4037610

  Atom        11          12          13
 IAtWgt=           1           1          19
 AtmWgt=   1.0078250   1.0078250  18.9984033
 NucSpn=           1           1           1
 AtZEff=   0.0000000   0.0000000   0.0000000
 NQMom=    0.0000000   0.0000000   0.0000000
 NMagM=    2.7928460   2.7928460   2.6288670
 Leave Link  101 at Thu Jul 31 10:18:43 2014, MaxMem=  209715200 cpu:       0.3
 (Enter /apps/gaussian/g09_C01.binary_dist/em64t/g09/l103.exe)

 GradGradGradGradGradGradGradGradGradGradGradGradGradGradGradGradGradGrad
 Berny optimization.
 Initialization pass.
                           ----------------------------
                           !    Initial Parameters    !
                           ! (Angstroms and Degrees)  !
 --------------------------                            --------------------------
 ! Name  Definition              Value          Derivative Info.                !
 --------------------------------------------------------------------------------
 ! R1    R(1,3)                  1.4037         estimate D2E/DX2                !
 ! R2    R(1,4)                  1.4029         estimate D2E/DX2                !
 ! R3    R(1,10)                 1.38           estimate D2E/DX2                !
 ! R4    R(2,5)                  1.341          estimate D2E/DX2                !
 ! R5    R(2,6)                  1.3393         estimate D2E/DX2                !
 ! R6    R(3,6)                  1.3929         estimate D2E/DX2                !
 ! R7    R(3,7)                  1.0863         estimate D2E/DX2                !
 ! R8    R(4,5)                  1.3824         estimate D2E/DX2                !
 ! R9    R(4,13)                 1.3579         estimate D2E/DX2                !
 ! R10   R(5,8)                  1.0888         estimate D2E/DX2                !
 ! R11   R(6,9)                  1.0893         estimate D2E/DX2                !
 ! R12   R(10,11)                1.0113         estimate D2E/DX2                !
 ! R13   R(10,12)                1.0106         estimate D2E/DX2                !
 ! A1    A(3,1,4)              115.4051         estimate D2E/DX2                !
 ! A2    A(3,1,10)             124.1111         estimate D2E/DX2                !
 ! A3    A(4,1,10)             120.4357         estimate D2E/DX2                !
 ! A4    A(5,2,6)              116.3858         estimate D2E/DX2                !
 ! A5    A(1,3,6)              119.209          estimate D2E/DX2                !
 ! A6    A(1,3,7)              120.1949         estimate D2E/DX2                !
 ! A7    A(6,3,7)              120.5951         estimate D2E/DX2                !
 ! A8    A(1,4,5)              121.4852         estimate D2E/DX2                !
 ! A9    A(1,4,13)             117.8009         estimate D2E/DX2                !
 ! A10   A(5,4,13)             120.7085         estimate D2E/DX2                !
 ! A11   A(2,5,4)              122.8242         estimate D2E/DX2                !
 ! A12   A(2,5,8)              117.8597         estimate D2E/DX2                !
 ! A13   A(4,5,8)              119.316          estimate D2E/DX2                !
 ! A14   A(2,6,3)              124.6904         estimate D2E/DX2                !
 ! A15   A(2,6,9)              115.9295         estimate D2E/DX2                !
 ! A16   A(3,6,9)              119.38           estimate D2E/DX2                !
 ! A17   A(1,10,11)            115.6126         estimate D2E/DX2                !
 ! A18   A(1,10,12)            116.6509         estimate D2E/DX2                !
 ! A19   A(11,10,12)           113.8804         estimate D2E/DX2                !
 ! D1    D(4,1,3,6)              0.061          estimate D2E/DX2                !
 ! D2    D(4,1,3,7)            179.7078         estimate D2E/DX2                !
 ! D3    D(10,1,3,6)          -177.4174         estimate D2E/DX2                !
 ! D4    D(10,1,3,7)             2.2294         estimate D2E/DX2                !
 ! D5    D(3,1,4,5)              0.1014         estimate D2E/DX2                !
 ! D6    D(3,1,4,13)           179.2616         estimate D2E/DX2                !
 ! D7    D(10,1,4,5)           177.6801         estimate D2E/DX2                !
 ! D8    D(10,1,4,13)           -3.1598         estimate D2E/DX2                !
 ! D9    D(3,1,10,11)         -162.9326         estimate D2E/DX2                !
 ! D10   D(3,1,10,12)          -24.9533         estimate D2E/DX2                !
 ! D11   D(4,1,10,11)           19.7093         estimate D2E/DX2                !
 ! D12   D(4,1,10,12)          157.6886         estimate D2E/DX2                !
 ! D13   D(6,2,5,4)              0.1041         estimate D2E/DX2                !
 ! D14   D(6,2,5,8)           -179.7707         estimate D2E/DX2                !
 ! D15   D(5,2,6,3)              0.0707         estimate D2E/DX2                !
 ! D16   D(5,2,6,9)            179.9495         estimate D2E/DX2                !
 ! D17   D(1,3,6,2)             -0.1549         estimate D2E/DX2                !
 ! D18   D(1,3,6,9)            179.9702         estimate D2E/DX2                !
 ! D19   D(7,3,6,2)           -179.8003         estimate D2E/DX2                !
 ! D20   D(7,3,6,9)              0.3248         estimate D2E/DX2                !
 ! D21   D(1,4,5,2)             -0.1944         estimate D2E/DX2                !
 ! D22   D(1,4,5,8)            179.6786         estimate D2E/DX2                !
 ! D23   D(13,4,5,2)          -179.3304         estimate D2E/DX2                !
 ! D24   D(13,4,5,8)             0.5427         estimate D2E/DX2                !
 --------------------------------------------------------------------------------
 Trust Radius=3.00D-01 FncErr=1.00D-07 GrdErr=1.00D-06
 Number of steps in this run=     66 maximum allowed number of steps=    100.
 GradGradGradGradGradGradGradGradGradGradGradGradGradGradGradGradGradGrad

 Leave Link  103 at Thu Jul 31 10:18:43 2014, MaxMem=  209715200 cpu:       0.0
 (Enter /apps/gaussian/g09_C01.binary_dist/em64t/g09/l202.exe)
                          Input orientation:                          
 ---------------------------------------------------------------------
 Center     Atomic      Atomic             Coordinates (Angstroms)
 Number     Number       Type             X           Y           Z
 ---------------------------------------------------------------------
      1          6           0       -0.709000    0.087000   -0.062000
      2          7           0        2.125000   -0.114000    0.037000
      3          6           0        0.111000    1.226000   -0.037000
      4          6           0       -0.033000   -1.142000   -0.035000
      5          6           0        1.347000   -1.206000    0.015000
      6          6           0        1.494000    1.067000    0.010000
      7          1           0       -0.331000    2.218000   -0.060000
      8          1           0        1.835000   -2.179000    0.040000
      9          1           0        2.133000    1.949000    0.029000
     10          7           0       -2.085000    0.126000   -0.160000
     11          1           0       -2.566000   -0.725000    0.099000
     12          1           0       -2.539000    0.968000    0.166000
     13          9           0       -0.780000   -2.276000   -0.042000
 ---------------------------------------------------------------------
                    Distance matrix (angstroms):
                    1          2          3          4          5
     1  C    0.000000
     2  N    2.842843   0.000000
     3  C    1.403690   2.420180   0.000000
     4  C    1.402906   2.391429   2.372375   0.000000
     5  C    2.430003   1.340982   2.728557   1.382388   0.000000
     6  C    2.412217   1.339273   1.392903   2.685784   2.277754
     7  H    2.164266   3.388151   1.086258   3.373282   3.813802
     8  H    3.408386   2.085266   3.817346   2.137854   1.088806
     9  H    3.398866   2.063031   2.148388   3.774908   3.251464
    10  N    1.380037   4.221434   2.459176   2.415399   3.685576
    11  H    2.033154   4.731030   3.315302   2.570590   3.943347
    12  H    2.043782   4.789599   2.670257   3.282154   4.455342
    13  F    2.364151   3.622086   3.613573   1.357945   2.381654
                    6          7          8          9         10
     6  C    0.000000
     7  H    2.158779   0.000000
     8  H    3.264000   4.902567   0.000000
     9  H    1.089314   2.480237   4.138757   0.000000
    10  N    3.704541   2.731846   4.551860   4.598975   0.000000
    11  H    4.438782   3.698886   4.635342   5.407012   1.011258
    12  H    4.037230   2.547320   5.389931   4.775847   1.010622
    13  F    4.043443   4.516410   2.618083   5.132371   2.736157
                   11         12         13
    11  H    0.000000
    12  H    1.694540   0.000000
    13  F    2.369658   3.696063   0.000000
 Symmetry turned off by external request.
 Stoichiometry    C5H5FN2
 Framework group  C1[X(C5H5FN2)]
 Deg. of freedom    33
 Full point group                 C1      NOp   1
 Rotational constants (GHZ):      3.3823747      2.2367365      1.3476343
 Leave Link  202 at Thu Jul 31 10:18:44 2014, MaxMem=  209715200 cpu:       0.0
 (Enter /apps/gaussian/g09_C01.binary_dist/em64t/g09/l301.exe)
 Standard basis: 6-31+G(d) (6D, 7F)
 Ernie: Thresh=  0.10000D-02 Tol=  0.10000D-05 Strict=F.
 Integral buffers will be    131072 words long.
 Raffenetti 2 integral format.
 Two-electron integral symmetry is turned off.
   162 basis functions,   276 primitive gaussians,   162 cartesian basis functions
    29 alpha electrons       29 beta electrons
       nuclear repulsion energy       351.8454482355 Hartrees.
 IExCor=  402 DFT=T Ex+Corr=B3LYP ExCW=0 ScaHFX=  0.200000
 ScaDFX=  0.800000  0.720000  1.000000  0.810000 ScalE2=  1.000000  1.000000
 IRadAn=      0 IRanWt=     -1 IRanGd=            0 ICorTp=0
 NAtoms=   13 NActive=   13 NUniq=   13 SFac= 1.00D+00 NAtFMM=   60 NAOKFM=F Big=F
 Leave Link  301 at Thu Jul 31 10:18:44 2014, MaxMem=  209715200 cpu:       0.2
 (Enter /apps/gaussian/g09_C01.binary_dist/em64t/g09/l302.exe)
 NPDir=0 NMtPBC=     1 NCelOv=     1 NCel=       1 NClECP=     1 NCelD=      1
         NCelK=      1 NCelE2=     1 NClLst=     1 CellRange=     0.0.
 One-electron integrals computed using PRISM.
 NBasis=   162 RedAO= T  NBF=   162
 NBsUse=   162 1.00D-06 NBFU=   162
 Precomputing XC quadrature grid using
 IXCGrd= 2 IRadAn=           0 IRanWt=          -1 IRanGd=           0 AccXCQ= 0.00D+00.
 NRdTot=     835 NPtTot=      105938 NUsed=      111965 NTot=      111997
 NSgBfM=   162   162   162   162   162 NAtAll=    13    13.
 Leave Link  302 at Thu Jul 31 10:18:44 2014, MaxMem=  209715200 cpu:       0.8
 (Enter /apps/gaussian/g09_C01.binary_dist/em64t/g09/l303.exe)
 DipDrv:  MaxL=1.
 Leave Link  303 at Thu Jul 31 10:18:44 2014, MaxMem=  209715200 cpu:       0.1
 (Enter /apps/gaussian/g09_C01.binary_dist/em64t/g09/l401.exe)
 Harris functional with IExCor=  402 diagonalized for initial guess.
 ExpMin= 4.38D-02 ExpMax= 7.00D+03 ExpMxC= 1.05D+03 IAcc=2 IRadAn=         4 AccDes= 0.00D+00
 HarFok:  IExCor=  402 AccDes= 0.00D+00 IRadAn=         4 IDoV= 1
 ScaDFX=  1.000000  1.000000  1.000000  1.000000
 FoFCou: FMM=F IPFlag=           0 FMFlag=      100000 FMFlg1=           0
         NFxFlg=           0 DoJE=T BraDBF=F KetDBF=T FulRan=T
         Omega=  0.000000  0.000000  1.000000  0.000000  0.000000 ICntrl=     500 IOpCl=  0
         NMat0=    1 NMatS0=    1 NMatT0=    0 NMatD0=    1 NMtDS0=    0 NMtDT0=    0
         I1Cent=           4 NGrid=           0.
 Symmetry not used in FoFCou.
 Harris En= -402.848034709286    
 Leave Link  401 at Thu Jul 31 10:18:45 2014, MaxMem=  209715200 cpu:       2.5
 (Enter /apps/gaussian/g09_C01.binary_dist/em64t/g09/l502.exe)
 Closed shell SCF:
 Requested convergence on RMS density matrix=1.00D-08 within 128 cycles.
 Requested convergence on MAX density matrix=1.00D-06.
 Requested convergence on             energy=1.00D-06.
 No special actions if energy rises.
 Using DIIS extrapolation, IDIIS=  1040.
 Two-electron integral symmetry not used.
       111835 words used for storage of precomputed grid.
 Keep R1 ints in memory in canonical form, NReq=89542195.
 IEnd=      210683 IEndB=      210683 NGot=   209715200 MDV=   122381330
 LenX=   122381330 LenY=   122354645
 Symmetry not used in FoFDir.
 MinBra= 0 MaxBra= 2 Meth= 1.
 IRaf=       0 NMat=   1 IRICut=       1 DoRegI=T DoRafI=F ISym2E= 0 JSym2E=0.

 Cycle   1  Pass 1  IDiag  1:
 E= -402.764499357710    
 DIIS: error= 2.42D-02 at cycle   1 NSaved=   1.
 NSaved= 1 IEnMin= 1 EnMin= -402.764499357710     IErMin= 1 ErrMin= 2.42D-02
 ErrMax= 2.42D-02 EMaxC= 1.00D-01 BMatC= 1.36D-01 BMatP= 1.36D-01
 IDIUse=3 WtCom= 7.58D-01 WtEn= 2.42D-01
 Coeff-Com:  0.100D+01
 Coeff-En:   0.100D+01
 Coeff:      0.100D+01
 Gap=     0.237 Goal=   None    Shift=    0.000
 GapD=    0.237 DampG=1.000 DampE=0.500 DampFc=0.5000 IDamp=-1.
 Damping current iteration by 5.00D-01
 RMSDP=4.05D-02 MaxDP=3.17D+00              OVMax= 2.14D-01

 Cycle   2  Pass 1  IDiag  1:
 E= -402.814349983289     Delta-E=       -0.049850625579 Rises=F Damp=T
 DIIS: error= 6.19D-03 at cycle   2 NSaved=   2.
 NSaved= 2 IEnMin= 2 EnMin= -402.814349983289     IErMin= 2 ErrMin= 6.19D-03
 ErrMax= 6.19D-03 EMaxC= 1.00D-01 BMatC= 1.37D-02 BMatP= 1.36D-01
 IDIUse=3 WtCom= 9.38D-01 WtEn= 6.19D-02
 Coeff-Com:  0.113D+00 0.887D+00
 Coeff-En:   0.220D+00 0.780D+00
 Coeff:      0.119D+00 0.881D+00
 Gap=     0.268 Goal=   None    Shift=    0.000
 RMSDP=1.59D-02 MaxDP=8.70D-01 DE=-4.99D-02 OVMax= 1.66D-01

 Cycle   3  Pass 1  IDiag  1:
 E= -402.883172484634     Delta-E=       -0.068822501345 Rises=F Damp=F
 DIIS: error= 7.80D-03 at cycle   3 NSaved=   3.
 NSaved= 3 IEnMin= 3 EnMin= -402.883172484634     IErMin= 2 ErrMin= 6.19D-03
 ErrMax= 7.80D-03 EMaxC= 1.00D-01 BMatC= 1.36D-02 BMatP= 1.37D-02
 IDIUse=3 WtCom= 9.22D-01 WtEn= 7.80D-02
 Coeff-Com: -0.537D-02 0.499D+00 0.506D+00
 Coeff-En:   0.000D+00 0.000D+00 0.100D+01
 Coeff:     -0.495D-02 0.460D+00 0.544D+00
 Gap=     0.221 Goal=   None    Shift=    0.000
 RMSDP=3.46D-03 MaxDP=1.53D-01 DE=-6.88D-02 OVMax= 6.15D-02

 Cycle   4  Pass 1  IDiag  1:
 E= -402.893487823991     Delta-E=       -0.010315339357 Rises=F Damp=F
 DIIS: error= 3.96D-03 at cycle   4 NSaved=   4.
 NSaved= 4 IEnMin= 4 EnMin= -402.893487823991     IErMin= 4 ErrMin= 3.96D-03
 ErrMax= 3.96D-03 EMaxC= 1.00D-01 BMatC= 3.19D-03 BMatP= 1.36D-02
 IDIUse=3 WtCom= 9.60D-01 WtEn= 3.96D-02
 Coeff-Com: -0.187D-01 0.122D+00 0.345D+00 0.551D+00
 Coeff-En:   0.000D+00 0.000D+00 0.227D+00 0.773D+00
 Coeff:     -0.179D-01 0.117D+00 0.340D+00 0.560D+00
 Gap=     0.214 Goal=   None    Shift=    0.000
 RMSDP=1.74D-03 MaxDP=8.09D-02 DE=-1.03D-02 OVMax= 2.63D-02

 Cycle   5  Pass 1  IDiag  1:
 E= -402.896425307979     Delta-E=       -0.002937483988 Rises=F Damp=F
 DIIS: error= 9.67D-04 at cycle   5 NSaved=   5.
 NSaved= 5 IEnMin= 5 EnMin= -402.896425307979     IErMin= 5 ErrMin= 9.67D-04
 ErrMax= 9.67D-04 EMaxC= 1.00D-01 BMatC= 2.64D-04 BMatP= 3.19D-03
 IDIUse=3 WtCom= 9.90D-01 WtEn= 9.67D-03
 Coeff-Com: -0.983D-02 0.375D-01 0.166D+00 0.342D+00 0.464D+00
 Coeff-En:   0.000D+00 0.000D+00 0.000D+00 0.204D-01 0.980D+00
 Coeff:     -0.973D-02 0.372D-01 0.164D+00 0.339D+00 0.469D+00
 Gap=     0.215 Goal=   None    Shift=    0.000
 RMSDP=3.35D-04 MaxDP=8.73D-03 DE=-2.94D-03 OVMax= 9.74D-03

 Cycle   6  Pass 1  IDiag  1:
 E= -402.896688488024     Delta-E=       -0.000263180044 Rises=F Damp=F
 DIIS: error= 2.99D-04 at cycle   6 NSaved=   6.
 NSaved= 6 IEnMin= 6 EnMin= -402.896688488024     IErMin= 6 ErrMin= 2.99D-04
 ErrMax= 2.99D-04 EMaxC= 1.00D-01 BMatC= 1.53D-05 BMatP= 2.64D-04
 IDIUse=3 WtCom= 9.97D-01 WtEn= 2.99D-03
 Coeff-Com: -0.283D-02 0.369D-02 0.409D-01 0.106D+00 0.245D+00 0.607D+00
 Coeff-En:   0.000D+00 0.000D+00 0.000D+00 0.000D+00 0.000D+00 0.100D+01
 Coeff:     -0.282D-02 0.368D-02 0.408D-01 0.106D+00 0.244D+00 0.608D+00
 Gap=     0.215 Goal=   None    Shift=    0.000
 RMSDP=8.68D-05 MaxDP=2.50D-03 DE=-2.63D-04 OVMax= 1.90D-03

 Cycle   7  Pass 1  IDiag  1:
 E= -402.896702889065     Delta-E=       -0.000014401042 Rises=F Damp=F
 DIIS: error= 7.72D-05 at cycle   7 NSaved=   7.
 NSaved= 7 IEnMin= 7 EnMin= -402.896702889065     IErMin= 7 ErrMin= 7.72D-05
 ErrMax= 7.72D-05 EMaxC= 1.00D-01 BMatC= 1.41D-06 BMatP= 1.53D-05
 IDIUse=1 WtCom= 1.00D+00 WtEn= 0.00D+00
 Coeff-Com: -0.124D-02 0.656D-03 0.175D-01 0.488D-01 0.126D+00 0.358D+00
 Coeff-Com:  0.450D+00
 Coeff:     -0.124D-02 0.656D-03 0.175D-01 0.488D-01 0.126D+00 0.358D+00
 Coeff:      0.450D+00
 Gap=     0.215 Goal=   None    Shift=    0.000
 RMSDP=2.44D-05 MaxDP=9.14D-04 DE=-1.44D-05 OVMax= 5.02D-04

 Cycle   8  Pass 1  IDiag  1:
 E= -402.896704304312     Delta-E=       -0.000001415246 Rises=F Damp=F
 DIIS: error= 1.37D-05 at cycle   8 NSaved=   8.
 NSaved= 8 IEnMin= 8 EnMin= -402.896704304312     IErMin= 8 ErrMin= 1.37D-05
 ErrMax= 1.37D-05 EMaxC= 1.00D-01 BMatC= 4.22D-08 BMatP= 1.41D-06
 IDIUse=1 WtCom= 1.00D+00 WtEn= 0.00D+00
 Coeff-Com: -0.717D-04-0.289D-03 0.146D-02 0.491D-02 0.165D-01 0.552D-01
 Coeff-Com:  0.166D+00 0.756D+00
 Coeff:     -0.717D-04-0.289D-03 0.146D-02 0.491D-02 0.165D-01 0.552D-01
 Coeff:      0.166D+00 0.756D+00
 Gap=     0.215 Goal=   None    Shift=    0.000
 RMSDP=1.25D-05 MaxDP=6.08D-04 DE=-1.42D-06 OVMax= 9.33D-05

 Cycle   9  Pass 1  IDiag  1:
 E= -402.896704336702     Delta-E=       -0.000000032390 Rises=F Damp=F
 DIIS: error= 5.13D-06 at cycle   9 NSaved=   9.
 NSaved= 9 IEnMin= 9 EnMin= -402.896704336702     IErMin= 9 ErrMin= 5.13D-06
 ErrMax= 5.13D-06 EMaxC= 1.00D-01 BMatC= 1.06D-08 BMatP= 4.22D-08
 IDIUse=1 WtCom= 1.00D+00 WtEn= 0.00D+00
 Coeff-Com:  0.525D-04-0.227D-03-0.439D-03-0.729D-03 0.315D-03 0.549D-02
 Coeff-Com:  0.620D-01 0.430D+00 0.503D+00
 Coeff:      0.525D-04-0.227D-03-0.439D-03-0.729D-03 0.315D-03 0.549D-02
 Coeff:      0.620D-01 0.430D+00 0.503D+00
 Gap=     0.215 Goal=   None    Shift=    0.000
 RMSDP=2.28D-06 MaxDP=7.02D-05 DE=-3.24D-08 OVMax= 3.35D-05

 Cycle  10  Pass 1  IDiag  1:
 E= -402.896704346612     Delta-E=       -0.000000009911 Rises=F Damp=F
 DIIS: error= 1.39D-06 at cycle  10 NSaved=  10.
 NSaved=10 IEnMin=10 EnMin= -402.896704346612     IErMin=10 ErrMin= 1.39D-06
 ErrMax= 1.39D-06 EMaxC= 1.00D-01 BMatC= 3.36D-10 BMatP= 1.06D-08
 IDIUse=1 WtCom= 1.00D+00 WtEn= 0.00D+00
 Coeff-Com:  0.234D-04-0.480D-04-0.261D-03-0.640D-03-0.126D-02-0.252D-02
 Coeff-Com:  0.916D-02 0.929D-01 0.199D+00 0.704D+00
 Coeff:      0.234D-04-0.480D-04-0.261D-03-0.640D-03-0.126D-02-0.252D-02
 Coeff:      0.916D-02 0.929D-01 0.199D+00 0.704D+00
 Gap=     0.215 Goal=   None    Shift=    0.000
 RMSDP=4.19D-07 MaxDP=1.58D-05 DE=-9.91D-09 OVMax= 1.07D-05

 Cycle  11  Pass 1  IDiag  1:
 E= -402.896704346943     Delta-E=       -0.000000000331 Rises=F Damp=F
 DIIS: error= 2.06D-07 at cycle  11 NSaved=  11.
 NSaved=11 IEnMin=11 EnMin= -402.896704346943     IErMin=11 ErrMin= 2.06D-07
 ErrMax= 2.06D-07 EMaxC= 1.00D-01 BMatC= 2.01D-11 BMatP= 3.36D-10
 IDIUse=1 WtCom= 1.00D+00 WtEn= 0.00D+00
 Coeff-Com:  0.878D-05-0.131D-04-0.109D-03-0.296D-03-0.673D-03-0.167D-02
 Coeff-Com:  0.658D-03 0.186D-01 0.582D-01 0.292D+00 0.633D+00
 Coeff:      0.878D-05-0.131D-04-0.109D-03-0.296D-03-0.673D-03-0.167D-02
 Coeff:      0.658D-03 0.186D-01 0.582D-01 0.292D+00 0.633D+00
 Gap=     0.215 Goal=   None    Shift=    0.000
 RMSDP=1.82D-07 MaxDP=9.17D-06 DE=-3.31D-10 OVMax= 1.67D-06

 Cycle  12  Pass 1  IDiag  1:
 E= -402.896704346965     Delta-E=       -0.000000000022 Rises=F Damp=F
 DIIS: error= 9.31D-08 at cycle  12 NSaved=  12.
 NSaved=12 IEnMin=12 EnMin= -402.896704346965     IErMin=12 ErrMin= 9.31D-08
 ErrMax= 9.31D-08 EMaxC= 1.00D-01 BMatC= 3.47D-12 BMatP= 2.01D-11
 IDIUse=1 WtCom= 1.00D+00 WtEn= 0.00D+00
 Coeff-Com:  0.413D-06 0.843D-06-0.473D-05-0.274D-04-0.756D-04-0.260D-03
 Coeff-Com: -0.755D-03-0.398D-02-0.103D-02 0.430D-01 0.319D+00 0.644D+00
 Coeff:      0.413D-06 0.843D-06-0.473D-05-0.274D-04-0.756D-04-0.260D-03
 Coeff:     -0.755D-03-0.398D-02-0.103D-02 0.430D-01 0.319D+00 0.644D+00
 Gap=     0.215 Goal=   None    Shift=    0.000
 RMSDP=5.17D-08 MaxDP=2.22D-06 DE=-2.17D-11 OVMax= 7.19D-07

 Cycle  13  Pass 1  IDiag  1:
 E= -402.896704346966     Delta-E=       -0.000000000001 Rises=F Damp=F
 DIIS: error= 2.11D-08 at cycle  13 NSaved=  13.
 NSaved=13 IEnMin=13 EnMin= -402.896704346966     IErMin=13 ErrMin= 2.11D-08
 ErrMax= 2.11D-08 EMaxC= 1.00D-01 BMatC= 1.54D-13 BMatP= 3.47D-12
 IDIUse=1 WtCom= 1.00D+00 WtEn= 0.00D+00
 Coeff-Com: -0.227D-06 0.825D-06 0.357D-05 0.324D-05 0.153D-05-0.209D-04
 Coeff-Com: -0.327D-03-0.243D-02-0.335D-02 0.345D-03 0.696D-01 0.238D+00
 Coeff-Com:  0.698D+00
 Coeff:     -0.227D-06 0.825D-06 0.357D-05 0.324D-05 0.153D-05-0.209D-04
 Coeff:     -0.327D-03-0.243D-02-0.335D-02 0.345D-03 0.696D-01 0.238D+00
 Coeff:      0.698D+00
 Gap=     0.215 Goal=   None    Shift=    0.000
 RMSDP=1.00D-08 MaxDP=3.67D-07 DE=-1.25D-12 OVMax= 1.73D-07

 SCF Done:  E(RB3LYP) =  -402.896704347     A.U. after   13 cycles
             Convg  =    0.9998D-08             -V/T =  2.0091
 KE= 3.992728541537D+02 PE=-1.644606814489D+03 EE= 4.905918077530D+02
 Leave Link  502 at Thu Jul 31 10:18:57 2014, MaxMem=  209715200 cpu:      45.9
 (Enter /apps/gaussian/g09_C01.binary_dist/em64t/g09/l601.exe)
 Copying SCF densities to generalized density rwf, IOpCl= 0 IROHF=0.

 **********************************************************************

            Population analysis using the SCF density.

 **********************************************************************

 Alpha  occ. eigenvalues --  -24.73889 -14.37727 -14.33810 -10.28350 -10.26635
 Alpha  occ. eigenvalues --  -10.23458 -10.23157 -10.21067  -1.24360  -0.96195
 Alpha  occ. eigenvalues --   -0.93890  -0.79765  -0.77232  -0.65842  -0.64331
 Alpha  occ. eigenvalues --   -0.56833  -0.55608  -0.53813  -0.48919  -0.48675
 Alpha  occ. eigenvalues --   -0.46173  -0.45644  -0.42224  -0.40669  -0.38422
 Alpha  occ. eigenvalues --   -0.35937  -0.26904  -0.26772  -0.24386
 Alpha virt. eigenvalues --   -0.02885  -0.01701  -0.01115   0.01112   0.02453
 Alpha virt. eigenvalues --    0.04427   0.05160   0.05929   0.06438   0.07860
 Alpha virt. eigenvalues --    0.08269   0.09044   0.09360   0.11953   0.12539
 Alpha virt. eigenvalues --    0.13259   0.13427   0.13545   0.14028   0.14688
 Alpha virt. eigenvalues --    0.15532   0.17703   0.18681   0.19142   0.19524
 Alpha virt. eigenvalues --    0.20403   0.20771   0.21565   0.22990   0.24074
 Alpha virt. eigenvalues --    0.24178   0.24975   0.26012   0.27311   0.28310
 Alpha virt. eigenvalues --    0.29789   0.31508   0.32244   0.34042   0.34972
 Alpha virt. eigenvalues --    0.35786   0.36575   0.38653   0.40783   0.41808
 Alpha virt. eigenvalues --    0.45082   0.57660   0.59404   0.64178   0.64997
 Alpha virt. eigenvalues --    0.68155   0.69750   0.71157   0.73312   0.73727
 Alpha virt. eigenvalues --    0.76531   0.79248   0.81261   0.88199   0.89377
 Alpha virt. eigenvalues --    0.91573   0.92207   0.94447   0.95794   0.97071
 Alpha virt. eigenvalues --    1.01682   1.02341   1.04677   1.06355   1.08869
 Alpha virt. eigenvalues --    1.11464   1.14112   1.15748   1.17684   1.18932
 Alpha virt. eigenvalues --    1.22414   1.22868   1.29382   1.30335   1.34199
 Alpha virt. eigenvalues --    1.37472   1.42775   1.44687   1.49054   1.50751
 Alpha virt. eigenvalues --    1.55582   1.62534   1.64971   1.69540   1.73851
 Alpha virt. eigenvalues --    1.74451   1.78605   1.80076   1.82248   1.85128
 Alpha virt. eigenvalues --    1.86914   1.88081   1.96129   1.98137   2.01266
 Alpha virt. eigenvalues --    2.03411   2.12521   2.18400   2.18878   2.22692
 Alpha virt. eigenvalues --    2.24123   2.25020   2.29106   2.32445   2.34671
 Alpha virt. eigenvalues --    2.36974   2.46497   2.52185   2.57664   2.60444
 Alpha virt. eigenvalues --    2.66481   2.69330   2.73735   2.77608   2.82182
 Alpha virt. eigenvalues --    2.91168   2.91506   3.17867   3.20853   3.45642
 Alpha virt. eigenvalues --    3.97073   4.18833   4.24972   4.27562   4.38625
 Alpha virt. eigenvalues --    4.41939   4.70004   6.35294
          Condensed to atoms (all electrons):
              1          2          3          4          5          6
     1  C    7.457778  -0.123143  -0.248186  -2.177497   0.561573   0.641021
     2  N   -0.123143   6.935229   0.166412   0.234665   0.024835   0.133235
     3  C   -0.248186   0.166412   8.045005  -0.622457  -0.535069  -0.859653
     4  C   -2.177497   0.234665  -0.622457  10.112823  -1.687700  -0.610906
     5  C    0.561573   0.024835  -0.535069  -1.687700   7.041994   0.468147
     6  C    0.641021   0.133235  -0.859653  -0.610906   0.468147   6.139686
     7  H   -0.033859   0.006500   0.287043   0.020140  -0.014105   0.035350
     8  H    0.073004  -0.087331  -0.046220  -0.178992   0.459513   0.039825
     9  H    0.045565  -0.086752  -0.144122  -0.041562   0.045540   0.446918
    10  N   -0.094738  -0.001532  -0.100026   0.110972  -0.012429   0.009287
    11  H    0.076272  -0.000156   0.093967  -0.186310   0.015033  -0.005196
    12  H    0.000360  -0.000048  -0.141873   0.129958  -0.006080   0.007316
    13  F   -0.122204   0.009780  -0.003304   0.076609  -0.011407  -0.005369
              7          8          9         10         11         12
     1  C   -0.033859   0.073004   0.045565  -0.094738   0.076272   0.000360
     2  N    0.006500  -0.087331  -0.086752  -0.001532  -0.000156  -0.000048
     3  C    0.287043  -0.046220  -0.144122  -0.100026   0.093967  -0.141873
     4  C    0.020140  -0.178992  -0.041562   0.110972  -0.186310   0.129958
     5  C   -0.014105   0.459513   0.045540  -0.012429   0.015033  -0.006080
     6  C    0.035350   0.039825   0.446918   0.009287  -0.005196   0.007316
     7  H    0.529525   0.000021  -0.002035  -0.012468  -0.000021   0.004057
     8  H    0.000021   0.541853  -0.000019  -0.001557  -0.000001   0.000003
     9  H   -0.002035  -0.000019   0.556903  -0.001138   0.000003  -0.000003
    10  N   -0.012468  -0.001557  -0.001138   7.365306   0.282955   0.293227
    11  H   -0.000021  -0.000001   0.000003   0.282955   0.343694  -0.030354
    12  H    0.004057   0.000003  -0.000003   0.293227  -0.030354   0.360822
    13  F   -0.000375   0.001724   0.000074  -0.023620   0.013260  -0.000314
             13
     1  C   -0.122204
     2  N    0.009780
     3  C   -0.003304
     4  C    0.076609
     5  C   -0.011407
     6  C   -0.005369
     7  H   -0.000375
     8  H    0.001724
     9  H    0.000074
    10  N   -0.023620
    11  H    0.013260
    12  H   -0.000314
    13  F    9.461313
 Mulliken atomic charges:
              1
     1  C   -0.055947
     2  N   -0.211695
     3  C    0.108483
     4  C    0.820257
     5  C   -0.349844
     6  C   -0.439662
     7  H    0.180226
     8  H    0.198178
     9  H    0.180627
    10  N   -0.814238
    11  H    0.396854
    12  H    0.382928
    13  F   -0.396167
 Sum of Mulliken atomic charges =   0.00000
 Mulliken charges with hydrogens summed into heavy atoms:
              1
     1  C   -0.055947
     2  N   -0.211695
     3  C    0.288710
     4  C    0.820257
     5  C   -0.151666
     6  C   -0.259035
    10  N   -0.034456
    13  F   -0.396167
 Sum of Mulliken charges with hydrogens summed into heavy atoms =   0.00000
 Electronic spatial extent (au):  <R**2>=            854.3946
 Charge=              0.0000 electrons
 Dipole moment (field-independent basis, Debye):
    X=             -3.2145    Y=              1.5800    Z=              0.8182  Tot=              3.6740
 Quadrupole moment (field-independent basis, Debye-Ang):
   XX=            -46.5703   YY=            -42.8475   ZZ=            -49.0066
   XY=             -1.8763   XZ=             -2.6313   YZ=              0.1422
 Traceless Quadrupole moment (field-independent basis, Debye-Ang):
   XX=             -0.4288   YY=              3.2940   ZZ=             -2.8651
   XY=             -1.8763   XZ=             -2.6313   YZ=              0.1422
 Octapole moment (field-independent basis, Debye-Ang**2):
  XXX=            -63.7504  YYY=             40.7259  ZZZ=              4.5766  XYY=             -1.6719
  XXY=             12.7621  XXZ=              7.4890  XZZ=             -6.8501  YZZ=              8.0706
  YYZ=              1.8604  XYZ=             -0.5693
 Hexadecapole moment (field-independent basis, Debye-Ang**3):
 XXXX=           -606.5645 YYYY=           -434.2014 ZZZZ=            -55.6111 XXXY=            -11.7732
 XXXZ=            -26.6450 YYYX=            -34.7938 YYYZ=             -1.1412 ZZZX=            -10.3419
 ZZZY=             -0.2329 XXYY=           -141.8286 XXZZ=           -118.8025 YYZZ=            -85.5982
 XXYZ=              1.5458 YYXZ=             -3.5927 ZZXY=             -5.3268
 N-N= 3.518454482355D+02 E-N=-1.644606813350D+03  KE= 3.992728541537D+02
 There are a total of      105646 grid points.
 ElSum from          density=       58.0000039848
 ElSum from atomic densities=       58.0000043791
 Hirshfeld populations (CX, CA, CB, DipXYZ):
              1          2          3          4          5          6
     1  C    0.000003   2.973638   2.973638   0.085441  -0.035319  -0.030210
     2  N    0.000028   3.605762   3.605762  -1.920942   0.130469  -0.067947
     3  C    0.000006   3.035935   3.035935   0.140470  -0.361590  -0.005066
     4  C    0.000006   2.974139   2.974139   0.094256   0.220946   0.013983
     5  C    0.000004   2.993502   2.993502  -0.146422   0.397778  -0.005849
     6  C    0.000004   2.990438   2.990438  -0.170653  -0.350370  -0.004294
     7  H    0.000044   0.473845   0.473845   0.462405  -1.107005   0.028258
     8  H    0.000039   0.470076   0.470076  -0.568486   1.060754  -0.028374
     9  H    0.000039   0.473833   0.473833  -0.731852  -0.965775  -0.022438
    10  N    0.000011   3.592897   3.592897   0.382957  -0.054679   0.855503
    11  H    0.000013   0.434303   0.434303   0.673774   0.874700  -0.234824
    12  H    0.000015   0.431858   0.431858   0.590220  -0.900165  -0.306379
    13  F    0.000035   4.549762   4.549762   0.722052   1.308148   0.015320
       Tot   0.000246  28.999989  28.999989  -0.386779   0.217891   0.207684
 Hirshfeld spin densities, charges and dipoles using IRadAn=      4:
              1          2          3          4          5
     1  C    0.000000   0.052724   0.085441  -0.035319  -0.030210
     2  N    0.000000  -0.211524  -1.920942   0.130469  -0.067947
     3  C    0.000000  -0.071871   0.140470  -0.361590  -0.005066
     4  C    0.000000   0.051721   0.094256   0.220946   0.013983
     5  C    0.000000   0.012996  -0.146422   0.397778  -0.005849
     6  C    0.000000   0.019125  -0.170653  -0.350370  -0.004294
     7  H    0.000000   0.052311   0.462405  -1.107005   0.028258
     8  H    0.000000   0.059848  -0.568486   1.060754  -0.028374
     9  H    0.000000   0.052334  -0.731852  -0.965775  -0.022438
    10  N    0.000000  -0.185794   0.382957  -0.054679   0.855503
    11  H    0.000000   0.131394   0.673774   0.874700  -0.234824
    12  H    0.000000   0.136284   0.590220  -0.900165  -0.306379
    13  F    0.000000  -0.099524   0.722052   1.308148   0.015320
       Tot   0.000000   0.000023  -0.386779   0.217891   0.207684
 Dip from Atomic Chgs             -0.877807   0.403723   0.114236
         Total Dipole             -1.264586   0.621614   0.321920
 EQQ=-0.337741866242E-01 EQD=-0.121995386562     EDD= 0.296835886563    
 EQQ+QD+DD= 0.141066313377    
 Hirshfeld charges with hydrogens summed into heavy atoms:
              1
     1  C    0.052724
     2  N   -0.211524
     3  C   -0.019560
     4  C    0.051721
     5  C    0.072843
     6  C    0.071459
     7  H    0.000000
     8  H    0.000000
     9  H    0.000000
    10  N    0.081884
    11  H    0.000000
    12  H    0.000000
    13  F   -0.099524
 Sum of Hirshfeld charges=  0.000023
 No NMR shielding tensors so no spin-rotation constants.
 Leave Link  601 at Thu Jul 31 10:18:58 2014, MaxMem=  209715200 cpu:       6.5
 (Enter /apps/gaussian/g09_C01.binary_dist/em64t/g09/l602.exe)
 UFF atomic radii scaled by 1 / 1.20 used.

 **********************************************************************

            Electrostatic Properties Using The SCF Density

 **********************************************************************

       Atomic Center    1 is at  -0.709000  0.087000 -0.062000
       Atomic Center    2 is at   2.125000 -0.114000  0.037000
       Atomic Center    3 is at   0.111000  1.226000 -0.037000
       Atomic Center    4 is at  -0.033000 -1.142000 -0.035000
       Atomic Center    5 is at   1.347000 -1.206000  0.015000
       Atomic Center    6 is at   1.494000  1.067000  0.010000
       Atomic Center    7 is at  -0.331000  2.218000 -0.060000
       Atomic Center    8 is at   1.835000 -2.179000  0.040000
       Atomic Center    9 is at   2.133000  1.949000  0.029000
       Atomic Center   10 is at  -2.085000  0.126000 -0.160000
       Atomic Center   11 is at  -2.566000 -0.725000  0.099000
       Atomic Center   12 is at  -2.539000  0.968000  0.166000
       Atomic Center   13 is at  -0.780000 -2.276000 -0.042000
     818 points will be used for fitting atomic charges
 Fitting point charges to electrostatic potential
 Charges from ESP fit, RMS=   0.00227 RRMS=   0.14059:
 Charge=   0.00000 Dipole=    -3.1761     1.5979     0.9525 Tot=     3.6808
              1
     1  C    0.544070
     2  N   -0.652726
     3  C   -0.634184
     4  C   -0.047240
     5  C    0.301304
     6  C    0.414186
     7  H    0.233309
     8  H    0.073570
     9  H    0.045451
    10  N   -0.808224
    11  H    0.357744
    12  H    0.358980
    13  F   -0.186241
 Charges from ESP fit with hydrogens summed into heavy atoms:
              1
     1  C    0.544070
     2  N   -0.652726
     3  C   -0.400875
     4  C   -0.047240
     5  C    0.374874
     6  C    0.459637
     7  H    0.000000
     8  H    0.000000
     9  H    0.000000
    10  N   -0.091500
    11  H    0.000000
    12  H    0.000000
    13  F   -0.186241
 -----------------------------------------------------------------

              Electrostatic Properties (Atomic Units)

 -----------------------------------------------------------------
    Center     Electric         -------- Electric Field --------
               Potential          X             Y             Z
 -----------------------------------------------------------------
    1 Atom    -14.661257
    2 Atom    -18.354752
    3 Atom    -14.718148
    4 Atom    -14.643811
    5 Atom    -14.694684
    6 Atom    -14.697413
    7 Atom     -1.077066
    8 Atom     -1.090057
    9 Atom     -1.100519
   10 Atom    -18.301198
   11 Atom     -0.999155
   12 Atom     -0.996120
   13 Atom    -26.507719
 -----------------------------------------------------------------
 Leave Link  602 at Thu Jul 31 10:18:59 2014, MaxMem=  209715200 cpu:       0.2
 (Enter /apps/gaussian/g09_C01.binary_dist/em64t/g09/l607.exe)
 ******************************Gaussian NBO Version 3.1******************************
             N A T U R A L   A T O M I C   O R B I T A L   A N D
          N A T U R A L   B O N D   O R B I T A L   A N A L Y S I S
 ******************************Gaussian NBO Version 3.1******************************
       /RESON  / : Allow strongly delocalized NBO set

 Analyzing the SCF density

 Job title: 3-Fluoro-4-Aminopyridine: Parent Compound Optimisation [B3LYP/6-

 Storage needed:     79500 in NPA ( 209714251 available)


 NATURAL POPULATIONS:  Natural atomic orbital occupancies 
                                                          
   NAO  Atom  No  lang   Type(AO)    Occupancy      Energy
 ----------------------------------------------------------
     1    C    1  S      Cor( 1S)     1.99892     -10.11767
     2    C    1  S      Val( 2S)     0.86030      -0.17751
     3    C    1  S      Ryd( 4S)     0.00147       1.02962
     4    C    1  S      Ryd( 3S)     0.00022       0.69446
     5    C    1  S      Ryd( 5S)     0.00009       3.90204
     6    C    1  px     Val( 2p)     0.92926      -0.06714
     7    C    1  px     Ryd( 4p)     0.00577       0.98275
     8    C    1  px     Ryd( 3p)     0.00039       0.38135
     9    C    1  py     Val( 2p)     1.09892      -0.09260
    10    C    1  py     Ryd( 4p)     0.00570       0.90079
    11    C    1  py     Ryd( 3p)     0.00023       0.33065
    12    C    1  pz     Val( 2p)     0.96236      -0.13483
    13    C    1  pz     Ryd( 4p)     0.00092       0.64023
    14    C    1  pz     Ryd( 3p)     0.00040       0.24597
    15    C    1  dxy    Ryd( 3d)     0.00090       2.47167
    16    C    1  dxz    Ryd( 3d)     0.00181       1.92616
    17    C    1  dyz    Ryd( 3d)     0.00058       1.88871
    18    C    1  dx2y2  Ryd( 3d)     0.00109       2.42407
    19    C    1  dz2    Ryd( 3d)     0.00043       2.31728

    20    N    2  S      Cor( 1S)     1.99948     -14.14368
    21    N    2  S      Val( 2S)     1.37843      -0.52012
    22    N    2  S      Ryd( 3S)     0.00281       1.02947
    23    N    2  S      Ryd( 4S)     0.00010       1.60871
    24    N    2  S      Ryd( 5S)     0.00001       3.83195
    25    N    2  px     Val( 2p)     1.66539      -0.21467
    26    N    2  px     Ryd( 3p)     0.00850       0.67539
    27    N    2  px     Ryd( 4p)     0.00032       0.71543
    28    N    2  py     Val( 2p)     1.19856      -0.15694
    29    N    2  py     Ryd( 4p)     0.00494       0.99104
    30    N    2  py     Ryd( 3p)     0.00020       0.80852
    31    N    2  pz     Val( 2p)     1.20306      -0.17805
    32    N    2  pz     Ryd( 4p)     0.00080       0.64239
    33    N    2  pz     Ryd( 3p)     0.00010       0.63177
    34    N    2  dxy    Ryd( 3d)     0.00339       2.33830
    35    N    2  dxz    Ryd( 3d)     0.00270       1.75515
    36    N    2  dyz    Ryd( 3d)     0.00027       1.77102
    37    N    2  dx2y2  Ryd( 3d)     0.00281       2.02323
    38    N    2  dz2    Ryd( 3d)     0.00269       2.08533

    39    C    3  S      Cor( 1S)     1.99904     -10.06285
    40    C    3  S      Val( 2S)     0.96997      -0.20031
    41    C    3  S      Ryd( 4S)     0.00092       0.86369
    42    C    3  S      Ryd( 3S)     0.00014       0.83964
    43    C    3  S      Ryd( 5S)     0.00003       4.06138
    44    C    3  px     Val( 2p)     1.09778      -0.07405
    45    C    3  px     Ryd( 4p)     0.00470       0.73772
    46    C    3  px     Ryd( 3p)     0.00031       0.38069
    47    C    3  py     Val( 2p)     1.15863      -0.07881
    48    C    3  py     Ryd( 4p)     0.00275       1.02236
    49    C    3  py     Ryd( 3p)     0.00058       0.34549
    50    C    3  pz     Val( 2p)     1.08076      -0.13079
    51    C    3  pz     Ryd( 4p)     0.00132       0.53194
    52    C    3  pz     Ryd( 3p)     0.00057       0.30782
    53    C    3  dxy    Ryd( 3d)     0.00077       2.37481
    54    C    3  dxz    Ryd( 3d)     0.00037       1.90707
    55    C    3  dyz    Ryd( 3d)     0.00041       1.81600
    56    C    3  dx2y2  Ryd( 3d)     0.00058       2.40774
    57    C    3  dz2    Ryd( 3d)     0.00047       2.29888

    58    C    4  S      Cor( 1S)     1.99834     -10.15339
    59    C    4  S      Val( 2S)     0.85562      -0.19008
    60    C    4  S      Ryd( 4S)     0.00154       1.22049
    61    C    4  S      Ryd( 3S)     0.00029       0.94420
    62    C    4  S      Ryd( 5S)     0.00008       3.55300
    63    C    4  px     Val( 2p)     0.96728      -0.07848
    64    C    4  px     Ryd( 4p)     0.00637       0.92016
    65    C    4  px     Ryd( 3p)     0.00038       0.39442
    66    C    4  py     Val( 2p)     0.75412      -0.06373
    67    C    4  py     Ryd( 4p)     0.00766       0.89085
    68    C    4  py     Ryd( 3p)     0.00042       0.35034
    69    C    4  pz     Val( 2p)     1.07882      -0.14638
    70    C    4  pz     Ryd( 4p)     0.00109       0.64035
    71    C    4  pz     Ryd( 3p)     0.00058       0.28917
    72    C    4  dxy    Ryd( 3d)     0.00175       2.51757
    73    C    4  dxz    Ryd( 3d)     0.00094       1.92046
    74    C    4  dyz    Ryd( 3d)     0.00130       1.91871
    75    C    4  dx2y2  Ryd( 3d)     0.00151       2.48313
    76    C    4  dz2    Ryd( 3d)     0.00045       2.35606

    77    C    5  S      Cor( 1S)     1.99910     -10.09688
    78    C    5  S      Val( 2S)     0.94473      -0.19484
    79    C    5  S      Ryd( 4S)     0.00316       0.89899
    80    C    5  S      Ryd( 3S)     0.00025       0.65921
    81    C    5  S      Ryd( 5S)     0.00009       3.94590
    82    C    5  px     Val( 2p)     1.02048      -0.05130
    83    C    5  px     Ryd( 4p)     0.00893       0.68502
    84    C    5  px     Ryd( 3p)     0.00060       0.33241
    85    C    5  py     Val( 2p)     1.08570      -0.06293
    86    C    5  py     Ryd( 4p)     0.00677       0.98489
    87    C    5  py     Ryd( 3p)     0.00045       0.38032
    88    C    5  pz     Val( 2p)     0.96156      -0.12583
    89    C    5  pz     Ryd( 4p)     0.00180       0.54930
    90    C    5  pz     Ryd( 3p)     0.00056       0.25728
    91    C    5  dxy    Ryd( 3d)     0.00089       2.55808
    92    C    5  dxz    Ryd( 3d)     0.00092       1.98071
    93    C    5  dyz    Ryd( 3d)     0.00056       1.94965
    94    C    5  dx2y2  Ryd( 3d)     0.00150       2.51363
    95    C    5  dz2    Ryd( 3d)     0.00041       2.36766

    96    C    6  S      Cor( 1S)     1.99923     -10.09400
    97    C    6  S      Val( 2S)     0.93377      -0.18888
    98    C    6  S      Ryd( 4S)     0.00223       1.02864
    99    C    6  S      Ryd( 3S)     0.00021       0.63885
   100    C    6  S      Ryd( 5S)     0.00006       3.80010
   101    C    6  px     Val( 2p)     1.05656      -0.04112
   102    C    6  px     Ryd( 4p)     0.00925       0.72822
   103    C    6  px     Ryd( 3p)     0.00065       0.30076
   104    C    6  py     Val( 2p)     1.03375      -0.04827
   105    C    6  py     Ryd( 4p)     0.00832       0.89516
   106    C    6  py     Ryd( 3p)     0.00043       0.34474
   107    C    6  pz     Val( 2p)     0.93598      -0.11876
   108    C    6  pz     Ryd( 4p)     0.00133       0.53248
   109    C    6  pz     Ryd( 3p)     0.00041       0.26001
   110    C    6  dxy    Ryd( 3d)     0.00138       2.50945
   111    C    6  dxz    Ryd( 3d)     0.00069       1.93110
   112    C    6  dyz    Ryd( 3d)     0.00061       1.98997
   113    C    6  dx2y2  Ryd( 3d)     0.00113       2.48755
   114    C    6  dz2    Ryd( 3d)     0.00039       2.33064

   115    H    7  S      Val( 1S)     0.75480       0.06282
   116    H    7  S      Ryd( 2S)     0.00122       0.52544

   117    H    8  S      Val( 1S)     0.75819       0.07050
   118    H    8  S      Ryd( 2S)     0.00095       0.56284

   119    H    9  S      Val( 1S)     0.76679       0.07636
   120    H    9  S      Ryd( 2S)     0.00065       0.56132

   121    N   10  S      Cor( 1S)     1.99950     -14.21924
   122    N   10  S      Val( 2S)     1.34199      -0.57888
   123    N   10  S      Ryd( 3S)     0.00043       1.01478
   124    N   10  S      Ryd( 4S)     0.00014       1.37445
   125    N   10  S      Ryd( 5S)     0.00001       3.44725
   126    N   10  px     Val( 2p)     1.30079      -0.23558
   127    N   10  px     Ryd( 3p)     0.00333       0.49222
   128    N   10  px     Ryd( 4p)     0.00061       0.72589
   129    N   10  py     Val( 2p)     1.42274      -0.24723
   130    N   10  py     Ryd( 3p)     0.00317       0.75318
   131    N   10  py     Ryd( 4p)     0.00047       0.80485
   132    N   10  pz     Val( 2p)     1.75833      -0.27195
   133    N   10  pz     Ryd( 3p)     0.00820       0.39729
   134    N   10  pz     Ryd( 4p)     0.00016       0.70957
   135    N   10  dxy    Ryd( 3d)     0.00048       2.23969
   136    N   10  dxz    Ryd( 3d)     0.00085       1.90435
   137    N   10  dyz    Ryd( 3d)     0.00085       1.98166
   138    N   10  dx2y2  Ryd( 3d)     0.00055       2.37161
   139    N   10  dz2    Ryd( 3d)     0.00096       2.10955

   140    H   11  S      Val( 1S)     0.57001       0.11956
   141    H   11  S      Ryd( 2S)     0.00140       0.61475

   142    H   12  S      Val( 1S)     0.58104       0.10755
   143    H   12  S      Ryd( 2S)     0.00121       0.57467

   144    F   13  S      Cor( 1S)     1.99994     -24.47057
   145    F   13  S      Val( 2S)     1.83025      -1.29406
   146    F   13  S      Ryd( 4S)     0.00032       1.96983
   147    F   13  S      Ryd( 3S)     0.00020       1.40340
   148    F   13  S      Ryd( 5S)     0.00005       4.62260
   149    F   13  px     Val( 2p)     1.85737      -0.43439
   150    F   13  px     Ryd( 3p)     0.00140       0.63044
   151    F   13  px     Ryd( 4p)     0.00005       1.67724
   152    F   13  py     Val( 2p)     1.72156      -0.43725
   153    F   13  py     Ryd( 3p)     0.00083       0.67830
   154    F   13  py     Ryd( 4p)     0.00009       1.75426
   155    F   13  pz     Val( 2p)     1.93365      -0.43096
   156    F   13  pz     Ryd( 3p)     0.00182       0.46336
   157    F   13  pz     Ryd( 4p)     0.00009       1.37087
   158    F   13  dxy    Ryd( 3d)     0.00136       2.47034
   159    F   13  dxz    Ryd( 3d)     0.00042       1.87701
   160    F   13  dyz    Ryd( 3d)     0.00116       1.95016
   161    F   13  dx2y2  Ryd( 3d)     0.00136       2.24482
   162    F   13  dz2    Ryd( 3d)     0.00039       2.09766

 WARNING:  1 low occupancy (<1.9990e) core orbital  found on  C    1
           1 low occupancy (<1.9990e) core orbital  found on  C    4

 WARNING:  Population inversion found on atom  C    1
           Population inversion found on atom  N    2
           Population inversion found on atom  C    3
           Population inversion found on atom  C    4
           Population inversion found on atom  C    5
           Population inversion found on atom  C    6
           Population inversion found on atom  F   13


 Summary of Natural Population Analysis:                  
                                                          
                                       Natural Population 
                Natural  -----------------------------------------------
    Atom  No    Charge         Core      Valence    Rydberg      Total
 -----------------------------------------------------------------------
      C    1    0.13021      1.99892     3.85085    0.02001     5.86979
      N    2   -0.47456      1.99948     5.44543    0.02965     7.47456
      C    3   -0.32011      1.99904     4.30714    0.01393     6.32011
      C    4    0.32147      1.99834     3.65583    0.02436     5.67853
      C    5   -0.03847      1.99910     4.01248    0.02689     6.03847
      C    6    0.01361      1.99923     3.96007    0.02709     5.98639
      H    7    0.24398      0.00000     0.75480    0.00122     0.75602
      H    8    0.24087      0.00000     0.75819    0.00095     0.75913
      H    9    0.23256      0.00000     0.76679    0.00065     0.76744
      N   10   -0.84359      1.99950     5.82386    0.02023     7.84359
      H   11    0.42858      0.00000     0.57001    0.00140     0.57142
      H   12    0.41775      0.00000     0.58104    0.00121     0.58225
      F   13   -0.35231      1.99994     7.34283    0.00954     9.35231
 =======================================================================
   * Total *    0.00000     15.99355    41.82932    0.17713    58.00000

                                 Natural Population      
 --------------------------------------------------------
   Core                      15.99355 ( 99.9597% of  16)
   Valence                   41.82932 ( 99.5936% of  42)
   Natural Minimal Basis     57.82287 ( 99.6946% of  58)
   Natural Rydberg Basis      0.17713 (  0.3054% of  58)
 --------------------------------------------------------

    Atom  No          Natural Electron Configuration
 ----------------------------------------------------------------------------
      C    1      [core]2S( 0.86)2p( 2.99)4p( 0.01)
      N    2      [core]2S( 1.38)2p( 4.07)3p( 0.01)3d( 0.01)4p( 0.01)
      C    3      [core]2S( 0.97)2p( 3.34)4p( 0.01)
      C    4      [core]2S( 0.86)2p( 2.80)3d( 0.01)4p( 0.02)
      C    5      [core]2S( 0.94)2p( 3.07)4p( 0.02)
      C    6      [core]2S( 0.93)2p( 3.03)4p( 0.02)
      H    7            1S( 0.75)
      H    8            1S( 0.76)
      H    9            1S( 0.77)
      N   10      [core]2S( 1.34)2p( 4.48)3p( 0.01)
      H   11            1S( 0.57)
      H   12            1S( 0.58)
      F   13      [core]2S( 1.83)2p( 5.51)


 NBO analysis skipped by request.
 Leave Link  607 at Thu Jul 31 10:18:59 2014, MaxMem=  209715200 cpu:       0.8
 (Enter /apps/gaussian/g09_C01.binary_dist/em64t/g09/l701.exe)
 Compute integral first derivatives.
 ... and contract with generalized density number  0.
 Leave Link  701 at Thu Jul 31 10:18:59 2014, MaxMem=  209715200 cpu:       0.6
 (Enter /apps/gaussian/g09_C01.binary_dist/em64t/g09/l702.exe)
 L702 exits ... SP integral derivatives will be done elsewhere.
 Leave Link  702 at Thu Jul 31 10:18:59 2014, MaxMem=  209715200 cpu:       0.1
 (Enter /apps/gaussian/g09_C01.binary_dist/em64t/g09/l703.exe)
 Compute integral first derivatives, UseDBF=F ICtDFT=           0.
 Integral derivatives from FoFDir, PRISM(SPDF).
 Calling FoFJK, ICntrl=      2127 FMM=F ISym2X=0 I1Cent= 0 IOpClX= 0 NMat=1 NMatS=1 NMatT=0.
 FoFCou: FMM=F IPFlag=           0 FMFlag=      100000 FMFlg1=         800
         NFxFlg=           0 DoJE=F BraDBF=F KetDBF=F FulRan=T
         Omega=  0.000000  0.000000  1.000000  0.000000  0.000000 ICntrl=    2127 IOpCl=  0
         NMat0=    1 NMatS0=    1 NMatT0=    0 NMatD0=    1 NMtDS0=    0 NMtDT0=    0
         I1Cent=           0 NGrid=           0.
 Symmetry not used in FoFCou.
 Leave Link  703 at Thu Jul 31 10:19:03 2014, MaxMem=  209715200 cpu:      13.2
 (Enter /apps/gaussian/g09_C01.binary_dist/em64t/g09/l716.exe)
 Dipole        =-1.26466813D+00 6.21603994D-01 3.21891991D-01
 -------------------------------------------------------------------
 Center     Atomic                   Forces (Hartrees/Bohr)
 Number     Number              X              Y              Z
 -------------------------------------------------------------------
      1        6           0.000236183   -0.001867120    0.000080673
      2        7          -0.000181912   -0.000331131   -0.000194155
      3        6          -0.000518506   -0.000843079   -0.000202307
      4        6           0.002848429    0.007090317    0.000253118
      5        6           0.000716500   -0.003303376   -0.000132097
      6        6           0.001614044    0.002934697    0.000246628
      7        1          -0.000021036    0.000735133   -0.000065182
      8        1           0.000175953    0.000527333    0.000046837
      9        1          -0.000238512   -0.000615448   -0.000001958
     10        7           0.000086871    0.000358590    0.000386180
     11        1          -0.001690660   -0.000174449   -0.000134222
     12        1          -0.000845789    0.000667904   -0.000110472
     13        9          -0.002181564   -0.005179372   -0.000173043
 -------------------------------------------------------------------
 Cartesian Forces:  Max     0.007090317 RMS     0.001777307
 Leave Link  716 at Thu Jul 31 10:19:03 2014, MaxMem=  209715200 cpu:       0.1
 (Enter /apps/gaussian/g09_C01.binary_dist/em64t/g09/l103.exe)

 GradGradGradGradGradGradGradGradGradGradGradGradGradGradGradGradGradGrad
 Berny optimization.
 Internal  Forces:  Max     0.005528046 RMS     0.001109458
 Search for a local minimum.
 Step number   1 out of a maximum of   66
 All quantities printed in internal units (Hartrees-Bohrs-Radians)
 RMS Force = .11095D-02 SwitMx=.10000D-02 MixMth= 1
 Mixed Optimization -- RFO/linear search
 Second derivative matrix not updated -- first step.
 ITU=  0
     Eigenvalues ---    0.01956   0.02025   0.02081   0.02113   0.02192
     Eigenvalues ---    0.02239   0.02279   0.02369   0.02426   0.03924
     Eigenvalues ---    0.16000   0.16000   0.16000   0.16000   0.16000
     Eigenvalues ---    0.22338   0.23250   0.24580   0.24971   0.24998
     Eigenvalues ---    0.34892   0.34951   0.35249   0.42510   0.43220
     Eigenvalues ---    0.45763   0.45790   0.45869   0.47996   0.49096
     Eigenvalues ---    0.53365   0.55023   0.56373
 RFO step:  Lambda=-2.29670267D-04 EMin= 1.95585790D-02
 Linear search not attempted -- first point.
 Iteration  1 RMS(Cart)=  0.01002100 RMS(Int)=  0.00009673
 Iteration  2 RMS(Cart)=  0.00009044 RMS(Int)=  0.00003984
 Iteration  3 RMS(Cart)=  0.00000001 RMS(Int)=  0.00003984
 Variable       Old X    -DE/DX   Delta X   Delta X   Delta X     New X
                                 (Linear)    (Quad)   (Total)
    R1        2.65259   0.00113   0.00000   0.00244   0.00245   2.65504
    R2        2.65111   0.00060   0.00000   0.00125   0.00125   2.65236
    R3        2.60789   0.00246   0.00000   0.00500   0.00500   2.61289
    R4        2.53409   0.00078   0.00000   0.00141   0.00141   2.53550
    R5        2.53086   0.00112   0.00000   0.00201   0.00201   2.53287
    R6        2.63221   0.00115   0.00000   0.00248   0.00247   2.63468
    R7        2.05273   0.00068   0.00000   0.00193   0.00193   2.05466
    R8        2.61233   0.00089   0.00000   0.00182   0.00182   2.61416
    R9        2.56614   0.00553   0.00000   0.01035   0.01035   2.57650
   R10        2.05754  -0.00039   0.00000  -0.00111  -0.00111   2.05643
   R11        2.05851  -0.00064   0.00000  -0.00183  -0.00183   2.05667
   R12        1.91100   0.00091   0.00000   0.00199   0.00199   1.91299
   R13        1.90980   0.00091   0.00000   0.00198   0.00198   1.91177
    A1        2.01420  -0.00088   0.00000  -0.00382  -0.00382   2.01038
    A2        2.16615  -0.00150   0.00000  -0.00601  -0.00602   2.16012
    A3        2.10200   0.00238   0.00000   0.00951   0.00949   2.11149
    A4        2.03132   0.00075   0.00000   0.00348   0.00348   2.03480
    A5        2.08059   0.00076   0.00000   0.00344   0.00344   2.08403
    A6        2.09780  -0.00009   0.00000   0.00010   0.00010   2.09790
    A7        2.10478  -0.00067   0.00000  -0.00355  -0.00355   2.10123
    A8        2.12032   0.00107   0.00000   0.00420   0.00420   2.12451
    A9        2.05601   0.00077   0.00000   0.00316   0.00314   2.05916
   A10        2.10676  -0.00184   0.00000  -0.00725  -0.00726   2.09950
   A11        2.14369  -0.00084   0.00000  -0.00363  -0.00363   2.14006
   A12        2.05704   0.00002   0.00000  -0.00067  -0.00067   2.05637
   A13        2.08246   0.00082   0.00000   0.00430   0.00430   2.08675
   A14        2.17626  -0.00087   0.00000  -0.00367  -0.00367   2.17259
   A15        2.02335   0.00025   0.00000   0.00070   0.00070   2.02405
   A16        2.08357   0.00062   0.00000   0.00297   0.00297   2.08654
   A17        2.01782   0.00195   0.00000   0.01596   0.01582   2.03364
   A18        2.03594   0.00019   0.00000   0.00493   0.00480   2.04074
   A19        1.98759  -0.00106   0.00000  -0.00160  -0.00178   1.98581
    D1        0.00107  -0.00005   0.00000  -0.00257  -0.00256  -0.00150
    D2        3.13649  -0.00005   0.00000  -0.00315  -0.00314   3.13335
    D3       -3.09652   0.00006   0.00000   0.00559   0.00555  -3.09097
    D4        0.03891   0.00006   0.00000   0.00501   0.00497   0.04388
    D5        0.00177  -0.00002   0.00000  -0.00095  -0.00096   0.00081
    D6        3.12870   0.00015   0.00000   0.00706   0.00708   3.13579
    D7        3.10110  -0.00023   0.00000  -0.00920  -0.00924   3.09186
    D8       -0.05515  -0.00006   0.00000  -0.00119  -0.00120  -0.05635
    D9       -2.84371  -0.00048   0.00000  -0.01165  -0.01171  -2.85542
   D10       -0.43552   0.00047   0.00000   0.01237   0.01241  -0.42311
   D11        0.34399  -0.00028   0.00000  -0.00276  -0.00280   0.34119
   D12        2.75219   0.00067   0.00000   0.02126   0.02132   2.77351
   D13        0.00182  -0.00001   0.00000  -0.00056  -0.00055   0.00127
   D14       -3.13759  -0.00001   0.00000  -0.00026  -0.00025  -3.13784
   D15        0.00123  -0.00007   0.00000  -0.00332  -0.00331  -0.00208
   D16        3.14071   0.00002   0.00000   0.00118   0.00117  -3.14131
   D17       -0.00270   0.00010   0.00000   0.00499   0.00498   0.00227
   D18        3.14107   0.00001   0.00000   0.00035   0.00035   3.14142
   D19       -3.13811   0.00010   0.00000   0.00556   0.00555  -3.13256
   D20        0.00567   0.00001   0.00000   0.00093   0.00092   0.00659
   D21       -0.00339   0.00005   0.00000   0.00268   0.00267  -0.00072
   D22        3.13598   0.00006   0.00000   0.00237   0.00237   3.13835
   D23       -3.12991  -0.00015   0.00000  -0.00565  -0.00565  -3.13555
   D24        0.00947  -0.00015   0.00000  -0.00596  -0.00595   0.00352
         Item               Value     Threshold  Converged?
 Maximum Force            0.005528     0.000450     NO 
 RMS     Force            0.001109     0.000300     NO 
 Maximum Displacement     0.043036     0.001800     NO 
 RMS     Displacement     0.010003     0.001200     NO 
 Predicted change in Energy=-1.154102D-04
 GradGradGradGradGradGradGradGradGradGradGradGradGradGradGradGradGradGrad

 Leave Link  103 at Thu Jul 31 10:19:03 2014, MaxMem=  209715200 cpu:       0.1
 (Enter /apps/gaussian/g09_C01.binary_dist/em64t/g09/l202.exe)
                          Input orientation:                          
 ---------------------------------------------------------------------
 Center     Atomic      Atomic             Coordinates (Angstroms)
 Number     Number       Type             X           Y           Z
 ---------------------------------------------------------------------
      1          6           0       -0.710222    0.082421   -0.053567
      2          7           0        2.127063   -0.113229    0.033091
      3          6           0        0.110355    1.222689   -0.032995
      4          6           0       -0.028786   -1.144379   -0.028912
      5          6           0        1.352424   -1.208575    0.013575
      6          6           0        1.495344    1.068692    0.010788
      7          1           0       -0.332207    2.215521   -0.057441
      8          1           0        1.844393   -2.179006    0.034709
      9          1           0        2.133208    1.950379    0.026640
     10          7           0       -2.088397    0.129124   -0.154868
     11          1           0       -2.588773   -0.714907    0.094152
     12          1           0       -2.541994    0.978674    0.154947
     13          9           0       -0.770408   -2.288405   -0.040118
 ---------------------------------------------------------------------
                    Distance matrix (angstroms):
                    1          2          3          4          5
     1  C    0.000000
     2  N    2.845343   0.000000
     3  C    1.404984   2.419950   0.000000
     4  C    1.403567   2.390564   2.371157   0.000000
     5  C    2.434273   1.341727   2.730559   1.383353   0.000000
     6  C    2.416898   1.340337   1.394212   2.687420   2.281749
     7  H    2.166339   3.388108   1.087278   3.373692   3.816734
     8  H    3.412902   2.085027   3.818769   2.140864   1.088217
     9  H    3.403057   2.063627   2.150587   3.775556   3.254041
    10  N    1.382682   4.226602   2.458708   2.424804   3.695546
    11  H    2.046095   4.754457   3.325016   2.598678   3.972812
    12  H    2.049912   4.796582   2.670172   3.295053   4.468841
    13  F    2.371627   3.623823   3.619886   1.363424   2.382295
                    6          7          8          9         10
     6  C    0.000000
     7  H    2.158660   0.000000
     8  H    3.266489   4.904889   0.000000
     9  H    1.088344   2.481056   4.139480   0.000000
    10  N    3.708561   2.728872   4.564016   4.601289   0.000000
    11  H    4.457374   3.701686   4.669056   5.422676   1.012312
    12  H    4.040914   2.541271   5.406089   4.776839   1.011667
    13  F    4.050472   4.525225   2.618158   5.138358   2.755850
                   11         12         13
    11  H    0.000000
    12  H    1.695317   0.000000
    13  F    2.408397   3.721609   0.000000
 Symmetry turned off by external request.
 Stoichiometry    C5H5FN2
 Framework group  C1[X(C5H5FN2)]
 Deg. of freedom    33
 Full point group                 C1      NOp   1
 Rotational constants (GHZ):      3.3576760      2.2348129      1.3429037
 Leave Link  202 at Thu Jul 31 10:19:03 2014, MaxMem=  209715200 cpu:       0.0
 (Enter /apps/gaussian/g09_C01.binary_dist/em64t/g09/l301.exe)
 Standard basis: 6-31+G(d) (6D, 7F)
 Ernie: Thresh=  0.10000D-02 Tol=  0.10000D-05 Strict=F.
 Integral buffers will be    131072 words long.
 Raffenetti 2 integral format.
 Two-electron integral symmetry is turned off.
   162 basis functions,   276 primitive gaussians,   162 cartesian basis functions
    29 alpha electrons       29 beta electrons
       nuclear repulsion energy       351.2770822213 Hartrees.
 IExCor=  402 DFT=T Ex+Corr=B3LYP ExCW=0 ScaHFX=  0.200000
 ScaDFX=  0.800000  0.720000  1.000000  0.810000 ScalE2=  1.000000  1.000000
 IRadAn=      0 IRanWt=     -1 IRanGd=            0 ICorTp=0
 NAtoms=   13 NActive=   13 NUniq=   13 SFac= 1.00D+00 NAtFMM=   60 NAOKFM=F Big=F
 Leave Link  301 at Thu Jul 31 10:19:03 2014, MaxMem=  209715200 cpu:       0.2
 (Enter /apps/gaussian/g09_C01.binary_dist/em64t/g09/l302.exe)
 NPDir=0 NMtPBC=     1 NCelOv=     1 NCel=       1 NClECP=     1 NCelD=      1
         NCelK=      1 NCelE2=     1 NClLst=     1 CellRange=     0.0.
 One-electron integrals computed using PRISM.
 NBasis=   162 RedAO= T  NBF=   162
 NBsUse=   162 1.00D-06 NBFU=   162
 Precomputing XC quadrature grid using
 IXCGrd= 2 IRadAn=           0 IRanWt=          -1 IRanGd=           0 AccXCQ= 0.00D+00.
 NRdTot=     835 NPtTot=      105938 NUsed=      111965 NTot=      111997
 NSgBfM=   162   162   162   162   162 NAtAll=    13    13.
 Leave Link  302 at Thu Jul 31 10:19:04 2014, MaxMem=  209715200 cpu:       0.8
 (Enter /apps/gaussian/g09_C01.binary_dist/em64t/g09/l303.exe)
 DipDrv:  MaxL=1.
 Leave Link  303 at Thu Jul 31 10:19:04 2014, MaxMem=  209715200 cpu:       0.1
 (Enter /apps/gaussian/g09_C01.binary_dist/em64t/g09/l401.exe)
 Initial guess read from the read-write file.
 B after Tr=     0.000000    0.000000    0.000000
         Rot=    1.000000    0.000000    0.000000    0.000000 Ang=   0.00 deg.
 Guess basis will be translated and rotated to current coordinates.
 Generating alternative initial guess.
 Harris functional with IExCor=  402 diagonalized for initial guess.
 ExpMin= 4.38D-02 ExpMax= 7.00D+03 ExpMxC= 1.05D+03 IAcc=2 IRadAn=         4 AccDes= 0.00D+00
 HarFok:  IExCor=  402 AccDes= 0.00D+00 IRadAn=         4 IDoV= 1
 ScaDFX=  1.000000  1.000000  1.000000  1.000000
 FoFCou: FMM=F IPFlag=           0 FMFlag=      100000 FMFlg1=           0
         NFxFlg=           0 DoJE=T BraDBF=F KetDBF=T FulRan=T
         Omega=  0.000000  0.000000  1.000000  0.000000  0.000000 ICntrl=     500 IOpCl=  0
         NMat0=    1 NMatS0=    1 NMatT0=    0 NMatD0=    1 NMtDS0=    0 NMtDT0=    0
         I1Cent=           4 NGrid=           0.
 Symmetry not used in FoFCou.
 Harris En= -402.847745993276    
 Leave Link  401 at Thu Jul 31 10:19:05 2014, MaxMem=  209715200 cpu:       2.8
 (Enter /apps/gaussian/g09_C01.binary_dist/em64t/g09/l502.exe)
 Closed shell SCF:
 Requested convergence on RMS density matrix=1.00D-08 within 128 cycles.
 Requested convergence on MAX density matrix=1.00D-06.
 Requested convergence on             energy=1.00D-06.
 No special actions if energy rises.
 Using DIIS extrapolation, IDIIS=  1040.
 Two-electron integral symmetry not used.
       111835 words used for storage of precomputed grid.
 Keep R1 ints in memory in canonical form, NReq=89542195.
 IEnd=      210683 IEndB=      210683 NGot=   209715200 MDV=   122381330
 LenX=   122381330 LenY=   122354645
 Symmetry not used in FoFDir.
 MinBra= 0 MaxBra= 2 Meth= 1.
 IRaf=       0 NMat=   1 IRICut=       1 DoRegI=T DoRafI=F ISym2E= 0 JSym2E=0.

 Cycle   1  Pass 1  IDiag  1:
 E= -402.896650595816    
 DIIS: error= 5.53D-04 at cycle   1 NSaved=   1.
 NSaved= 1 IEnMin= 1 EnMin= -402.896650595816     IErMin= 1 ErrMin= 5.53D-04
 ErrMax= 5.53D-04 EMaxC= 1.00D-01 BMatC= 1.15D-04 BMatP= 1.15D-04
 IDIUse=3 WtCom= 9.94D-01 WtEn= 5.53D-03
 Coeff-Com:  0.100D+01
 Coeff-En:   0.100D+01
 Coeff:      0.100D+01
 Gap=     0.216 Goal=   None    Shift=    0.000
 RMSDP=6.89D-04 MaxDP=2.80D-02              OVMax= 3.37D-03

 Cycle   2  Pass 1  IDiag  1:
 E= -402.896825963714     Delta-E=       -0.000175367898 Rises=F Damp=F
 DIIS: error= 1.16D-04 at cycle   2 NSaved=   2.
 NSaved= 2 IEnMin= 2 EnMin= -402.896825963714     IErMin= 2 ErrMin= 1.16D-04
 ErrMax= 1.16D-04 EMaxC= 1.00D-01 BMatC= 6.15D-06 BMatP= 1.15D-04
 IDIUse=3 WtCom= 9.99D-01 WtEn= 1.16D-03
 Coeff-Com:  0.461D-01 0.954D+00
 Coeff-En:   0.000D+00 0.100D+01
 Coeff:      0.461D-01 0.954D+00
 Gap=     0.215 Goal=   None    Shift=    0.000
 RMSDP=1.46D-04 MaxDP=6.06D-03 DE=-1.75D-04 OVMax= 1.13D-03

 Cycle   3  Pass 1  IDiag  1:
 E= -402.896825531767     Delta-E=        0.000000431947 Rises=F Damp=F
 DIIS: error= 1.58D-04 at cycle   3 NSaved=   3.
 NSaved= 3 IEnMin= 2 EnMin= -402.896825963714     IErMin= 2 ErrMin= 1.16D-04
 ErrMax= 1.58D-04 EMaxC= 1.00D-01 BMatC= 8.83D-06 BMatP= 6.15D-06
 IDIUse=3 WtCom= 4.43D-01 WtEn= 5.57D-01
 Coeff-Com: -0.276D-01 0.557D+00 0.471D+00
 Coeff-En:   0.000D+00 0.520D+00 0.480D+00
 Coeff:     -0.122D-01 0.536D+00 0.476D+00
 Gap=     0.215 Goal=   None    Shift=    0.000
 RMSDP=5.81D-05 MaxDP=2.46D-03 DE= 4.32D-07 OVMax= 6.36D-04

 Cycle   4  Pass 1  IDiag  1:
 E= -402.896831391358     Delta-E=       -0.000005859591 Rises=F Damp=F
 DIIS: error= 2.89D-05 at cycle   4 NSaved=   4.
 NSaved= 4 IEnMin= 4 EnMin= -402.896831391358     IErMin= 4 ErrMin= 2.89D-05
 ErrMax= 2.89D-05 EMaxC= 1.00D-01 BMatC= 3.27D-07 BMatP= 6.15D-06
 IDIUse=1 WtCom= 1.00D+00 WtEn= 0.00D+00
 Coeff-Com: -0.165D-01 0.190D+00 0.240D+00 0.586D+00
 Coeff:     -0.165D-01 0.190D+00 0.240D+00 0.586D+00
 Gap=     0.215 Goal=   None    Shift=    0.000
 RMSDP=1.74D-05 MaxDP=7.28D-04 DE=-5.86D-06 OVMax= 1.07D-04

 Cycle   5  Pass 1  IDiag  1:
 E= -402.896831627131     Delta-E=       -0.000000235773 Rises=F Damp=F
 DIIS: error= 5.84D-06 at cycle   5 NSaved=   5.
 NSaved= 5 IEnMin= 5 EnMin= -402.896831627131     IErMin= 5 ErrMin= 5.84D-06
 ErrMax= 5.84D-06 EMaxC= 1.00D-01 BMatC= 9.94D-09 BMatP= 3.27D-07
 IDIUse=1 WtCom= 1.00D+00 WtEn= 0.00D+00
 Coeff-Com: -0.437D-02 0.372D-01 0.627D-01 0.225D+00 0.680D+00
 Coeff:     -0.437D-02 0.372D-01 0.627D-01 0.225D+00 0.680D+00
 Gap=     0.215 Goal=   None    Shift=    0.000
 RMSDP=6.30D-06 MaxDP=4.46D-04 DE=-2.36D-07 OVMax= 3.57D-05

 Cycle   6  Pass 1  IDiag  1:
 E= -402.896831635542     Delta-E=       -0.000000008411 Rises=F Damp=F
 DIIS: error= 3.64D-06 at cycle   6 NSaved=   6.
 NSaved= 6 IEnMin= 6 EnMin= -402.896831635542     IErMin= 6 ErrMin= 3.64D-06
 ErrMax= 3.64D-06 EMaxC= 1.00D-01 BMatC= 2.41D-09 BMatP= 9.94D-09
 IDIUse=1 WtCom= 1.00D+00 WtEn= 0.00D+00
 Coeff-Com: -0.767D-03 0.221D-02 0.107D-01 0.587D-01 0.363D+00 0.567D+00
 Coeff:     -0.767D-03 0.221D-02 0.107D-01 0.587D-01 0.363D+00 0.567D+00
 Gap=     0.215 Goal=   None    Shift=    0.000
 RMSDP=1.47D-06 MaxDP=6.55D-05 DE=-8.41D-09 OVMax= 2.76D-05

 Cycle   7  Pass 1  IDiag  1:
 E= -402.896831637373     Delta-E=       -0.000000001832 Rises=F Damp=F
 DIIS: error= 1.86D-06 at cycle   7 NSaved=   7.
 NSaved= 7 IEnMin= 7 EnMin= -402.896831637373     IErMin= 7 ErrMin= 1.86D-06
 ErrMax= 1.86D-06 EMaxC= 1.00D-01 BMatC= 7.24D-10 BMatP= 2.41D-09
 IDIUse=1 WtCom= 1.00D+00 WtEn= 0.00D+00
 Coeff-Com:  0.213D-03-0.480D-02-0.306D-02 0.391D-02 0.140D+00 0.384D+00
 Coeff-Com:  0.480D+00
 Coeff:      0.213D-03-0.480D-02-0.306D-02 0.391D-02 0.140D+00 0.384D+00
 Coeff:      0.480D+00
 Gap=     0.215 Goal=   None    Shift=    0.000
 RMSDP=6.60D-07 MaxDP=3.09D-05 DE=-1.83D-09 OVMax= 1.19D-05

 Cycle   8  Pass 1  IDiag  1:
 E= -402.896831638118     Delta-E=       -0.000000000744 Rises=F Damp=F
 DIIS: error= 2.98D-07 at cycle   8 NSaved=   8.
 NSaved= 8 IEnMin= 8 EnMin= -402.896831638118     IErMin= 8 ErrMin= 2.98D-07
 ErrMax= 2.98D-07 EMaxC= 1.00D-01 BMatC= 3.25D-11 BMatP= 7.24D-10
 IDIUse=1 WtCom= 1.00D+00 WtEn= 0.00D+00
 Coeff-Com:  0.162D-03-0.263D-02-0.256D-02-0.305D-02 0.447D-01 0.155D+00
 Coeff-Com:  0.254D+00 0.554D+00
 Coeff:      0.162D-03-0.263D-02-0.256D-02-0.305D-02 0.447D-01 0.155D+00
 Coeff:      0.254D+00 0.554D+00
 Gap=     0.215 Goal=   None    Shift=    0.000
 RMSDP=1.10D-07 MaxDP=2.30D-06 DE=-7.44D-10 OVMax= 2.71D-06

 Cycle   9  Pass 1  IDiag  1:
 E= -402.896831638145     Delta-E=       -0.000000000028 Rises=F Damp=F
 DIIS: error= 1.21D-07 at cycle   9 NSaved=   9.
 NSaved= 9 IEnMin= 9 EnMin= -402.896831638145     IErMin= 9 ErrMin= 1.21D-07
 ErrMax= 1.21D-07 EMaxC= 1.00D-01 BMatC= 4.50D-12 BMatP= 3.25D-11
 IDIUse=1 WtCom= 1.00D+00 WtEn= 0.00D+00
 Coeff-Com:  0.595D-04-0.818D-03-0.104D-02-0.222D-02 0.458D-02 0.298D-01
 Coeff-Com:  0.724D-01 0.311D+00 0.587D+00
 Coeff:      0.595D-04-0.818D-03-0.104D-02-0.222D-02 0.458D-02 0.298D-01
 Coeff:      0.724D-01 0.311D+00 0.587D+00
 Gap=     0.215 Goal=   None    Shift=    0.000
 RMSDP=8.48D-08 MaxDP=4.60D-06 DE=-2.79D-11 OVMax= 7.78D-07

 Cycle  10  Pass 1  IDiag  1:
 E= -402.896831638146     Delta-E=       -0.000000000001 Rises=F Damp=F
 DIIS: error= 2.47D-08 at cycle  10 NSaved=  10.
 NSaved=10 IEnMin=10 EnMin= -402.896831638146     IErMin=10 ErrMin= 2.47D-08
 ErrMax= 2.47D-08 EMaxC= 1.00D-01 BMatC= 1.92D-13 BMatP= 4.50D-12
 IDIUse=1 WtCom= 1.00D+00 WtEn= 0.00D+00
 Coeff-Com:  0.663D-05-0.386D-04-0.133D-03-0.578D-03-0.337D-02-0.562D-02
 Coeff-Com: -0.623D-03 0.620D-01 0.221D+00 0.728D+00
 Coeff:      0.663D-05-0.386D-04-0.133D-03-0.578D-03-0.337D-02-0.562D-02
 Coeff:     -0.623D-03 0.620D-01 0.221D+00 0.728D+00
 Gap=     0.215 Goal=   None    Shift=    0.000
 RMSDP=1.78D-08 MaxDP=5.64D-07 DE=-9.09D-13 OVMax= 2.45D-07

 Cycle  11  Pass 1  IDiag  1:
 E= -402.896831638152     Delta-E=       -0.000000000005 Rises=F Damp=F
 DIIS: error= 8.19D-09 at cycle  11 NSaved=  11.
 NSaved=11 IEnMin=11 EnMin= -402.896831638152     IErMin=11 ErrMin= 8.19D-09
 ErrMax= 8.19D-09 EMaxC= 1.00D-01 BMatC= 2.53D-14 BMatP= 1.92D-13
 IDIUse=1 WtCom= 1.00D+00 WtEn= 0.00D+00
 Coeff-Com: -0.113D-05 0.408D-04 0.207D-04-0.741D-04-0.178D-02-0.438D-02
 Coeff-Com: -0.516D-02 0.700D-02 0.612D-01 0.341D+00 0.602D+00
 Coeff:     -0.113D-05 0.408D-04 0.207D-04-0.741D-04-0.178D-02-0.438D-02
 Coeff:     -0.516D-02 0.700D-02 0.612D-01 0.341D+00 0.602D+00
 Gap=     0.215 Goal=   None    Shift=    0.000
 RMSDP=3.67D-09 MaxDP=1.35D-07 DE=-5.34D-12 OVMax= 6.75D-08

 SCF Done:  E(RB3LYP) =  -402.896831638     A.U. after   11 cycles
             Convg  =    0.3674D-08             -V/T =  2.0092
 KE= 3.992301054320D+02 PE=-1.643452886289D+03 EE= 4.900488669972D+02
 Leave Link  502 at Thu Jul 31 10:19:15 2014, MaxMem=  209715200 cpu:      38.9
 (Enter /apps/gaussian/g09_C01.binary_dist/em64t/g09/l701.exe)
 Compute integral first derivatives.
 ... and contract with generalized density number  0.
 Leave Link  701 at Thu Jul 31 10:19:15 2014, MaxMem=  209715200 cpu:       0.6
 (Enter /apps/gaussian/g09_C01.binary_dist/em64t/g09/l702.exe)
 L702 exits ... SP integral derivatives will be done elsewhere.
 Leave Link  702 at Thu Jul 31 10:19:15 2014, MaxMem=  209715200 cpu:       0.1
 (Enter /apps/gaussian/g09_C01.binary_dist/em64t/g09/l703.exe)
 Compute integral first derivatives, UseDBF=F ICtDFT=           0.
 Integral derivatives from FoFDir, PRISM(SPDF).
 Calling FoFJK, ICntrl=      2127 FMM=F ISym2X=0 I1Cent= 0 IOpClX= 0 NMat=1 NMatS=1 NMatT=0.
 FoFCou: FMM=F IPFlag=           0 FMFlag=      100000 FMFlg1=         800
         NFxFlg=           0 DoJE=F BraDBF=F KetDBF=F FulRan=T
         Omega=  0.000000  0.000000  1.000000  0.000000  0.000000 ICntrl=    2127 IOpCl=  0
         NMat0=    1 NMatS0=    1 NMatT0=    0 NMatD0=    1 NMtDS0=    0 NMtDT0=    0
         I1Cent=           0 NGrid=           0.
 Symmetry not used in FoFCou.
 Leave Link  703 at Thu Jul 31 10:19:18 2014, MaxMem=  209715200 cpu:      12.9
 (Enter /apps/gaussian/g09_C01.binary_dist/em64t/g09/l716.exe)
 Dipole        =-1.27173700D+00 6.38864793D-01 3.09981014D-01
 -------------------------------------------------------------------
 Center     Atomic                   Forces (Hartrees/Bohr)
 Number     Number              X              Y              Z
 -------------------------------------------------------------------
      1        6          -0.000995153   -0.001413580   -0.000484756
      2        7           0.000061665   -0.000215669    0.000088180
      3        6           0.000108515   -0.000107526    0.000219654
      4        6           0.000642782    0.003129373   -0.000032032
      5        6           0.000012784   -0.000329252    0.000022725
      6        6          -0.000234770    0.000296004   -0.000177622
      7        1          -0.000005130    0.000045763    0.000008956
      8        1          -0.000035421    0.000191789   -0.000015787
      9        1          -0.000034213   -0.000134038    0.000047057
[...]
    50    C    3  pz     Val( 2p)     0.52275
    51    C    3  pz     Ryd( 3p)     0.00031
    52    C    3  pz     Ryd( 4p)     0.00019
    53    C    3  dxy    Ryd( 3d)     0.00043
    54    C    3  dxz    Ryd( 3d)     0.00020
    55    C    3  dyz    Ryd( 3d)     0.00028
    56    C    3  dx2y2  Ryd( 3d)     0.00027
    57    C    3  dz2    Ryd( 3d)     0.00024

    58    C    4  S      Cor( 1S)     0.99918
    59    C    4  S      Val( 2S)     0.43883
    60    C    4  S      Ryd( 3S)     0.00070
    61    C    4  S      Ryd( 4S)     0.00012
    62    C    4  S      Ryd( 5S)     0.00005
    63    C    4  px     Val( 2p)     0.48527
    64    C    4  px     Ryd( 3p)     0.00319
    65    C    4  px     Ryd( 4p)     0.00014
    66    C    4  py     Val( 2p)     0.37586
    67    C    4  py     Ryd( 3p)     0.00370
    68    C    4  py     Ryd( 4p)     0.00016
    69    C    4  pz     Val( 2p)     0.55514
    70    C    4  pz     Ryd( 3p)     0.00042
    71    C    4  pz     Ryd( 4p)     0.00022
    72    C    4  dxy    Ryd( 3d)     0.00092
    73    C    4  dxz    Ryd( 3d)     0.00054
    74    C    4  dyz    Ryd( 3d)     0.00086
    75    C    4  dx2y2  Ryd( 3d)     0.00081
    76    C    4  dz2    Ryd( 3d)     0.00023

    77    C    5  S      Cor( 1S)     0.99956
    78    C    5  S      Val( 2S)     0.48391
    79    C    5  S      Ryd( 3S)     0.00126
    80    C    5  S      Ryd( 4S)     0.00012
    81    C    5  S      Ryd( 5S)     0.00004
    82    C    5  px     Val( 2p)     0.50622
    83    C    5  px     Ryd( 3p)     0.00443
    84    C    5  px     Ryd( 4p)     0.00017
    85    C    5  py     Val( 2p)     0.55466
    86    C    5  py     Ryd( 3p)     0.00348
    87    C    5  py     Ryd( 4p)     0.00014
    88    C    5  pz     Val( 2p)     0.46114
    89    C    5  pz     Ryd( 3p)     0.00042
    90    C    5  pz     Ryd( 4p)     0.00017
    91    C    5  dxy    Ryd( 3d)     0.00044
    92    C    5  dxz    Ryd( 3d)     0.00045
    93    C    5  dyz    Ryd( 3d)     0.00036
    94    C    5  dx2y2  Ryd( 3d)     0.00080
    95    C    5  dz2    Ryd( 3d)     0.00021

    96    C    6  S      Cor( 1S)     0.99963
    97    C    6  S      Val( 2S)     0.47940
    98    C    6  S      Ryd( 3S)     0.00096
    99    C    6  S      Ryd( 4S)     0.00010
   100    C    6  S      Ryd( 5S)     0.00002
   101    C    6  px     Val( 2p)     0.52864
   102    C    6  px     Ryd( 3p)     0.00459
   103    C    6  px     Ryd( 4p)     0.00020
   104    C    6  py     Val( 2p)     0.52379
   105    C    6  py     Ryd( 3p)     0.00394
   106    C    6  py     Ryd( 4p)     0.00013
   107    C    6  pz     Val( 2p)     0.44844
   108    C    6  pz     Ryd( 3p)     0.00029
   109    C    6  pz     Ryd( 4p)     0.00014
   110    C    6  dxy    Ryd( 3d)     0.00068
   111    C    6  dxz    Ryd( 3d)     0.00035
   112    C    6  dyz    Ryd( 3d)     0.00036
   113    C    6  dx2y2  Ryd( 3d)     0.00061
   114    C    6  dz2    Ryd( 3d)     0.00020

   115    H    7  S      Val( 1S)     0.35651
   116    H    7  S      Ryd( 2S)     0.00033

   117    H    8  S      Val( 1S)     0.35466
   118    H    8  S      Ryd( 2S)     0.00038

   119    H    9  S      Val( 1S)     0.35955
   120    H    9  S      Ryd( 2S)     0.00023

   121    N   10  S      Cor( 1S)     0.99976
   122    N   10  S      Val( 2S)     0.68504
   123    N   10  S      Ryd( 3S)     0.00016
   124    N   10  S      Ryd( 4S)     0.00007
   125    N   10  S      Ryd( 5S)     0.00001
   126    N   10  px     Val( 2p)     0.65559
   127    N   10  px     Ryd( 3p)     0.00108
   128    N   10  px     Ryd( 4p)     0.00021
   129    N   10  py     Val( 2p)     0.73124
   130    N   10  py     Ryd( 3p)     0.00134
   131    N   10  py     Ryd( 4p)     0.00012
   132    N   10  pz     Val( 2p)     0.89862
   133    N   10  pz     Ryd( 3p)     0.00275
   134    N   10  pz     Ryd( 4p)     0.00011
   135    N   10  dxy    Ryd( 3d)     0.00029
   136    N   10  dxz    Ryd( 3d)     0.00041
   137    N   10  dyz    Ryd( 3d)     0.00035
   138    N   10  dx2y2  Ryd( 3d)     0.00030
   139    N   10  dz2    Ryd( 3d)     0.00037

   140    H   11  S      Val( 1S)     0.26679
   141    H   11  S      Ryd( 2S)     0.00063

   142    H   12  S      Val( 1S)     0.26983
   143    H   12  S      Ryd( 2S)     0.00040

   144    F   13  S      Cor( 1S)     0.99997
   145    F   13  S      Val( 2S)     0.92114
   146    F   13  S      Ryd( 3S)     0.00015
   147    F   13  S      Ryd( 4S)     0.00010
   148    F   13  S      Ryd( 5S)     0.00002
   149    F   13  px     Val( 2p)     0.92663
   150    F   13  px     Ryd( 3p)     0.00066
   151    F   13  px     Ryd( 4p)     0.00003
   152    F   13  py     Val( 2p)     0.84809
   153    F   13  py     Ryd( 3p)     0.00040
   154    F   13  py     Ryd( 4p)     0.00005
   155    F   13  pz     Val( 2p)     0.96599
   156    F   13  pz     Ryd( 3p)     0.00105
   157    F   13  pz     Ryd( 4p)     0.00003
   158    F   13  dxy    Ryd( 3d)     0.00074
   159    F   13  dxz    Ryd( 3d)     0.00021
   160    F   13  dyz    Ryd( 3d)     0.00072
   161    F   13  dx2y2  Ryd( 3d)     0.00074
   162    F   13  dz2    Ryd( 3d)     0.00020


 Summary of Natural Population Analysis:                  
                                                          
                                       Natural Population 
                Natural  -----------------------------------------------
    Atom  No    Charge         Core      Valence    Rydberg      Total
 -----------------------------------------------------------------------
      C    1    0.01350      0.99945     1.97708    0.00996     2.98650
      N    2   -0.22746      0.99975     2.71434    0.01337     3.72746
      C    3   -0.15519      0.99954     2.14898    0.00668     3.15519
      C    4    0.13366      0.99918     1.85510    0.01206     2.86634
      C    5   -0.01797      0.99956     2.00594    0.01248     3.01797
      C    6    0.00753      0.99963     1.98027    0.01258     2.99247
      H    7    0.14316      0.00000     0.35651    0.00033     0.35684
      H    8    0.14496      0.00000     0.35466    0.00038     0.35504
      H    9    0.14021      0.00000     0.35955    0.00023     0.35979
      N   10   -0.47783      0.99976     2.97049    0.00758     3.97783
      H   11    0.23259      0.00000     0.26679    0.00063     0.26741
      H   12    0.22978      0.00000     0.26983    0.00040     0.27022
      F   13   -0.16693      0.99997     3.66186    0.00510     4.66693
 =======================================================================
   * Total *    0.00000      7.99684    20.92140    0.08176    29.00000

                                 Natural Population      
 --------------------------------------------------------
   Core                       7.99684 ( 99.9605% of   8)
   Valence                   20.92140 ( 99.6257% of  21)
   Natural Minimal Basis     28.91824 ( 99.7181% of  29)
   Natural Rydberg Basis      0.08176 (  0.2819% of  29)
 --------------------------------------------------------

    Atom  No          Natural Electron Configuration
 ----------------------------------------------------------------------------
      C    1      [core]2S( 0.44)2p( 1.54)3p( 0.01)
      N    2      [core]2S( 0.70)2p( 2.01)3p( 0.01)3d( 0.01)
      C    3      [core]2S( 0.50)2p( 1.65)
      C    4      [core]2S( 0.44)2p( 1.42)3p( 0.01)
      C    5      [core]2S( 0.48)2p( 1.52)3p( 0.01)
      C    6      [core]2S( 0.48)2p( 1.50)3p( 0.01)
      H    7            1S( 0.36)
      H    8            1S( 0.35)
      H    9            1S( 0.36)
      N   10      [core]2S( 0.69)2p( 2.29)3p( 0.01)
      H   11            1S( 0.27)
      H   12            1S( 0.27)
      F   13      [core]2S( 0.92)2p( 2.74)


 NBO analysis skipped by request.


 ***************************************************
 *******         Beta  spin orbitals         *******
 ***************************************************


 NATURAL POPULATIONS:  Natural atomic orbital occupancies 
                                                          
   NAO  Atom  No  lang   Type(AO)    Occupancy
 --------------------------------------------
     1    C    1  S      Cor( 1S)     0.99945
     2    C    1  S      Val( 2S)     0.44114
     3    C    1  S      Ryd( 3S)     0.00065
     4    C    1  S      Ryd( 4S)     0.00010
     5    C    1  S      Ryd( 5S)     0.00005
     6    C    1  px     Val( 2p)     0.46256
     7    C    1  px     Ryd( 3p)     0.00262
     8    C    1  px     Ryd( 4p)     0.00018
     9    C    1  py     Val( 2p)     0.55188
    10    C    1  py     Ryd( 3p)     0.00282
    11    C    1  py     Ryd( 4p)     0.00009
    12    C    1  pz     Val( 2p)     0.39163
    13    C    1  pz     Ryd( 3p)     0.00025
    14    C    1  pz     Ryd( 4p)     0.00017
    15    C    1  dxy    Ryd( 3d)     0.00048
    16    C    1  dxz    Ryd( 3d)     0.00031
    17    C    1  dyz    Ryd( 3d)     0.00035
    18    C    1  dx2y2  Ryd( 3d)     0.00059
    19    C    1  dz2    Ryd( 3d)     0.00021

    20    N    2  S      Cor( 1S)     0.99975
    21    N    2  S      Val( 2S)     0.70129
    22    N    2  S      Ryd( 3S)     0.00058
    23    N    2  S      Ryd( 4S)     0.00005
    24    N    2  S      Ryd( 5S)     0.00000
    25    N    2  px     Val( 2p)     0.82866
    26    N    2  px     Ryd( 3p)     0.00359
    27    N    2  px     Ryd( 4p)     0.00010
    28    N    2  py     Val( 2p)     0.59468
    29    N    2  py     Ryd( 3p)     0.00196
    30    N    2  py     Ryd( 4p)     0.00004
    31    N    2  pz     Val( 2p)     0.42700
    32    N    2  pz     Ryd( 3p)     0.00018
    33    N    2  pz     Ryd( 4p)     0.00002
    34    N    2  dxy    Ryd( 3d)     0.00190
    35    N    2  dxz    Ryd( 3d)     0.00133
    36    N    2  dyz    Ryd( 3d)     0.00015
    37    N    2  dx2y2  Ryd( 3d)     0.00165
    38    N    2  dz2    Ryd( 3d)     0.00144

    39    C    3  S      Cor( 1S)     0.99954
    40    C    3  S      Val( 2S)     0.49555
    41    C    3  S      Ryd( 3S)     0.00041
    42    C    3  S      Ryd( 4S)     0.00008
    43    C    3  S      Ryd( 5S)     0.00001
    44    C    3  px     Val( 2p)     0.54724
    45    C    3  px     Ryd( 3p)     0.00242
    46    C    3  px     Ryd( 4p)     0.00010
    47    C    3  py     Val( 2p)     0.58314
    48    C    3  py     Ryd( 3p)     0.00157
    49    C    3  py     Ryd( 4p)     0.00015
    50    C    3  pz     Val( 2p)     0.45340
    51    C    3  pz     Ryd( 3p)     0.00030
    52    C    3  pz     Ryd( 4p)     0.00019
    53    C    3  dxy    Ryd( 3d)     0.00043
    54    C    3  dxz    Ryd( 3d)     0.00017
    55    C    3  dyz    Ryd( 3d)     0.00017
    56    C    3  dx2y2  Ryd( 3d)     0.00027
    57    C    3  dz2    Ryd( 3d)     0.00024

    58    C    4  S      Cor( 1S)     0.99918
    59    C    4  S      Val( 2S)     0.43883
    60    C    4  S      Ryd( 3S)     0.00070
    61    C    4  S      Ryd( 4S)     0.00012
    62    C    4  S      Ryd( 5S)     0.00005
    63    C    4  px     Val( 2p)     0.48483
    64    C    4  px     Ryd( 3p)     0.00318
    65    C    4  px     Ryd( 4p)     0.00014
    66    C    4  py     Val( 2p)     0.37571
    67    C    4  py     Ryd( 3p)     0.00370
    68    C    4  py     Ryd( 4p)     0.00016
    69    C    4  pz     Val( 2p)     0.36716
    70    C    4  pz     Ryd( 3p)     0.00037
    71    C    4  pz     Ryd( 4p)     0.00020
    72    C    4  dxy    Ryd( 3d)     0.00092
    73    C    4  dxz    Ryd( 3d)     0.00054
    74    C    4  dyz    Ryd( 3d)     0.00051
    75    C    4  dx2y2  Ryd( 3d)     0.00081
    76    C    4  dz2    Ryd( 3d)     0.00023

    77    C    5  S      Cor( 1S)     0.99956
    78    C    5  S      Val( 2S)     0.48391
    79    C    5  S      Ryd( 3S)     0.00126
    80    C    5  S      Ryd( 4S)     0.00012
    81    C    5  S      Ryd( 5S)     0.00004
    82    C    5  px     Val( 2p)     0.50617
    83    C    5  px     Ryd( 3p)     0.00443
    84    C    5  px     Ryd( 4p)     0.00017
    85    C    5  py     Val( 2p)     0.55466
    86    C    5  py     Ryd( 3p)     0.00348
    87    C    5  py     Ryd( 4p)     0.00014
    88    C    5  pz     Val( 2p)     0.46051
    89    C    5  pz     Ryd( 3p)     0.00041
    90    C    5  pz     Ryd( 4p)     0.00017
    91    C    5  dxy    Ryd( 3d)     0.00044
    92    C    5  dxz    Ryd( 3d)     0.00017
    93    C    5  dyz    Ryd( 3d)     0.00032
    94    C    5  dx2y2  Ryd( 3d)     0.00080
    95    C    5  dz2    Ryd( 3d)     0.00020

    96    C    6  S      Cor( 1S)     0.99963
    97    C    6  S      Val( 2S)     0.47940
    98    C    6  S      Ryd( 3S)     0.00096
    99    C    6  S      Ryd( 4S)     0.00010
   100    C    6  S      Ryd( 5S)     0.00002
   101    C    6  px     Val( 2p)     0.52850
   102    C    6  px     Ryd( 3p)     0.00459
   103    C    6  px     Ryd( 4p)     0.00020
   104    C    6  py     Val( 2p)     0.52379
   105    C    6  py     Ryd( 3p)     0.00393
   106    C    6  py     Ryd( 4p)     0.00013
   107    C    6  pz     Val( 2p)     0.42495
   108    C    6  pz     Ryd( 3p)     0.00029
   109    C    6  pz     Ryd( 4p)     0.00012
   110    C    6  dxy    Ryd( 3d)     0.00068
   111    C    6  dxz    Ryd( 3d)     0.00024
   112    C    6  dyz    Ryd( 3d)     0.00028
   113    C    6  dx2y2  Ryd( 3d)     0.00061
   114    C    6  dz2    Ryd( 3d)     0.00020

   115    H    7  S      Val( 1S)     0.35647
   116    H    7  S      Ryd( 2S)     0.00033

   117    H    8  S      Val( 1S)     0.35460
   118    H    8  S      Ryd( 2S)     0.00038

   119    H    9  S      Val( 1S)     0.35953
   120    H    9  S      Ryd( 2S)     0.00023

   121    N   10  S      Cor( 1S)     0.99971
   122    N   10  S      Val( 2S)     0.67446
   123    N   10  S      Ryd( 3S)     0.00014
   124    N   10  S      Ryd( 4S)     0.00006
   125    N   10  S      Ryd( 5S)     0.00001
   126    N   10  px     Val( 2p)     0.65136
   127    N   10  px     Ryd( 3p)     0.00107
   128    N   10  px     Ryd( 4p)     0.00019
   129    N   10  py     Val( 2p)     0.73096
   130    N   10  py     Ryd( 3p)     0.00134
   131    N   10  py     Ryd( 4p)     0.00012
   132    N   10  pz     Val( 2p)     0.54591
   133    N   10  pz     Ryd( 3p)     0.00037
   134    N   10  pz     Ryd( 4p)     0.00008
   135    N   10  dxy    Ryd( 3d)     0.00029
   136    N   10  dxz    Ryd( 3d)     0.00040
   137    N   10  dyz    Ryd( 3d)     0.00035
   138    N   10  dx2y2  Ryd( 3d)     0.00030
   139    N   10  dz2    Ryd( 3d)     0.00034

   140    H   11  S      Val( 1S)     0.26537
   141    H   11  S      Ryd( 2S)     0.00062

   142    H   12  S      Val( 1S)     0.26822
   143    H   12  S      Ryd( 2S)     0.00039

   144    F   13  S      Cor( 1S)     0.99997
   145    F   13  S      Val( 2S)     0.92114
   146    F   13  S      Ryd( 3S)     0.00015
   147    F   13  S      Ryd( 4S)     0.00009
   148    F   13  S      Ryd( 5S)     0.00002
   149    F   13  px     Val( 2p)     0.92656
   150    F   13  px     Ryd( 3p)     0.00066
   151    F   13  px     Ryd( 4p)     0.00003
   152    F   13  py     Val( 2p)     0.84809
   153    F   13  py     Ryd( 3p)     0.00040
   154    F   13  py     Ryd( 4p)     0.00005
   155    F   13  pz     Val( 2p)     0.91805
   156    F   13  pz     Ryd( 3p)     0.00033
   157    F   13  pz     Ryd( 4p)     0.00003
   158    F   13  dxy    Ryd( 3d)     0.00074
   159    F   13  dxz    Ryd( 3d)     0.00021
   160    F   13  dyz    Ryd( 3d)     0.00071
   161    F   13  dx2y2  Ryd( 3d)     0.00074
   162    F   13  dz2    Ryd( 3d)     0.00020


 Summary of Natural Population Analysis:                  
                                                          
                                       Natural Population 
                Natural  -----------------------------------------------
    Atom  No    Charge         Core      Valence    Rydberg      Total
 -----------------------------------------------------------------------
      C    1    0.14447      0.99945     1.84721    0.00887     2.85553
      N    2   -0.06438      0.99975     2.55163    0.01299     3.56438
      C    3   -0.08538      0.99954     2.07934    0.00650     3.08538
      C    4    0.32267      0.99918     1.66653    0.01162     2.67733
      C    5   -0.01697      0.99956     2.00525    0.01216     3.01697
      C    6    0.03137      0.99963     1.95663    0.01237     2.96863
      H    7    0.14321      0.00000     0.35647    0.00033     0.35679
      H    8    0.14502      0.00000     0.35460    0.00038     0.35498
      H    9    0.14024      0.00000     0.35953    0.00023     0.35976
      N   10   -0.10748      0.99971     2.60270    0.00507     3.60748
      H   11    0.23402      0.00000     0.26537    0.00062     0.26598
      H   12    0.23139      0.00000     0.26822    0.00039     0.26861
      F   13   -0.11818      0.99997     3.61384    0.00437     4.61818
 =======================================================================
   * Total *    1.00000      7.99679    19.92731    0.07590    28.00000

                                 Natural Population      
 --------------------------------------------------------
   Core                       7.99679 ( 99.9599% of   8)
   Valence                   19.92731 ( 99.6366% of  20)
   Natural Minimal Basis     27.92410 ( 99.7289% of  28)
   Natural Rydberg Basis      0.07590 (  0.2711% of  28)
 --------------------------------------------------------

    Atom  No          Natural Electron Configuration
 ----------------------------------------------------------------------------
      C    1      [core]2S( 0.44)2p( 1.41)3p( 0.01)
      N    2      [core]2S( 0.70)2p( 1.85)3p( 0.01)3d( 0.01)
      C    3      [core]2S( 0.50)2p( 1.58)
      C    4      [core]2S( 0.44)2p( 1.23)3p( 0.01)
      C    5      [core]2S( 0.48)2p( 1.52)3p( 0.01)
      C    6      [core]2S( 0.48)2p( 1.48)3p( 0.01)
      H    7            1S( 0.36)
      H    8            1S( 0.35)
      H    9            1S( 0.36)
      N   10      [core]2S( 0.67)2p( 1.93)
      H   11            1S( 0.27)
      H   12            1S( 0.27)
      F   13      [core]2S( 0.92)2p( 2.69)


 NBO analysis skipped by request.
 Leave Link  607 at Thu Jul 31 10:21:57 2014, MaxMem=  209715200 cpu:       1.1
 (Enter /apps/gaussian/g09_C01.binary_dist/em64t/g09/l9999.exe)
 1\1\GINC-UKMCDWLX007\SP\ROB3LYP\6-31+G(d)\C5H5F1N2(1+,2)\KNZD043\31-Ju
 l-2014\0\\#p rob3lyp/6-31+G(d) scf=tight nosymm guess=read geom=checkp
 oint pop=(npa,chelpg,mk,hirshfeld)\\3-Fluoro-4-Aminopyridine: Radical 
 Cation Single Point.\\1,2\C,0,-0.7109161077,0.0803816724,-0.0522518305
 \N,0,2.1279004464,-0.1131142953,0.0311289637\C,0,0.1099331519,1.221491
 6982,-0.0307801161\C,0,-0.0276510288,-1.1431806922,-0.0284772217\C,0,1
 .3534288098,-1.2082431885,0.0122455547\C,0,1.4945541979,1.068639458,0.
 010007137\H,0,-0.3331987396,2.214218476,-0.0525830017\H,0,1.8449547759
 ,-2.1785685511,0.0324146345\H,0,2.1319647311,1.950399562,0.0264882293\
 N,0,-2.086336555,0.1281289184,-0.1471227537\H,0,-2.5924483409,-0.71374
 88425,0.0945707531\H,0,-2.5408540419,0.9836452504,0.1420738593\F,0,-0.
 7693312991,-2.2910494658,-0.0377142079\\Version=EM64L-G09RevC.01\HF=-4
 02.5731374\RMSD=4.414e-09\Dipole=-1.723287,1.09338,0.2416956\Quadrupol
 e=5.6167061,1.7029532,-7.3196593,-1.4176626,-1.1773667,0.0630981\PG=C0
 1 [X(C5H5F1N2)]\\@


 IT WAS AN ACT OF DESPARATION. FOR SIX YEARS I HAD STRUGGLED WITH THE
 BLACKBODY THEORY. I KNEW THE PROBLEM WAS FUNDAMENTAL, AND I KNEW
 THE ANSWER. I HAD TO FIND A THEORETICAL EXPLANATION AT ANY COST,
 EXCEPT FOR THE INVIOLABLITY OF THE TWO LAWS OF THERMODYNAMICS.
   -- MAX PLANCK, 1931
 Job cpu time:  0 days  0 hours  2 minutes 49.6 seconds.
 File lengths (MBytes):  RWF=     14 Int=      0 D2E=      0 Chk=      4 Scr=      1
 Normal termination of Gaussian 09 at Thu Jul 31 10:21:58 2014.
